/*--------------------------------*- C++ -*----------------------------------*\
| =========                 |                                                 |
| \\      /  F ield         | OpenFOAM: The Open Source CFD Toolbox           |
|  \\    /   O peration     | Version:  5.x                                   |
|   \\  /    A nd           | Web:      www.OpenFOAM.org                      |
|    \\/     M anipulation  |                                                 |
\*---------------------------------------------------------------------------*/
FoamFile
{
    version     2.0;
    format      ascii;
    class       volScalarField;
    location    "500";
    object      epsilon;
}
// * * * * * * * * * * * * * * * * * * * * * * * * * * * * * * * * * * * * * //

dimensions      [0 2 -3 0 0 0 0];

internalField   nonuniform List<scalar> 
12225
(
295.222
280.07
266.402
251.974
240.02
230.738
224.123
220.964
221.52
223.086
228.154
232.378
240.871
246.522
255.628
263.749
273.241
279.693
53.5095
95.01
110.674
119.148
130.115
143.464
161.009
180.328
203.68
225.9
252.514
275.235
302.746
323.176
349.948
366.158
392.607
401.086
20.3002
34.94
44.9894
51.015
56.0827
60.5609
65.8168
71.2276
78.3316
85.7582
94.476
102.922
112.309
121.586
130.748
140.848
148.663
159.792
15.8219
19.1066
23.586
27.0414
29.9452
32.3477
34.6265
36.7974
39.0206
41.4689
43.9097
46.7753
49.2977
52.6082
55.0543
58.7705
61.0242
64.9882
14.9579
15.5051
16.9714
18.5004
19.9479
21.2638
22.4217
23.5556
24.5266
25.6228
26.5176
27.6775
28.5233
29.7791
30.5794
31.9216
32.6751
34.0735
14.7621
14.7702
15.0478
15.4874
16.0598
16.6656
17.2138
17.7911
18.2656
18.8077
19.2221
19.7535
20.1254
20.6605
20.9995
21.5456
21.8508
22.4154
14.7599
14.6059
14.5472
14.5695
14.6625
14.8253
15.0082
15.2325
15.424
15.6583
15.8408
16.0737
16.2418
16.4731
16.6248
16.8584
16.9889
17.2333
14.764
14.593
14.4483
14.3526
14.2866
14.2774
14.2894
14.3272
14.3742
14.4511
14.5129
14.6013
14.6678
14.7626
14.8265
14.9262
14.9846
15.0942
14.7653
14.5944
14.4319
14.2948
14.1725
14.0807
14.0078
13.9587
13.9193
13.902
13.8882
13.8887
13.8937
13.9031
13.9138
13.9328
13.9493
13.9775
14.7654
14.5951
14.4316
14.2821
14.1417
14.017
13.9039
13.8072
13.7197
13.6469
13.5814
13.5278
13.4789
13.4409
13.4023
13.3773
13.3442
13.3329
14.7655
14.5946
14.4322
14.2802
14.1361
14.0022
13.8762
13.7605
13.6523
13.554
13.4621
13.3796
13.3016
13.2332
13.1664
13.1102
13.0519
13.0068
14.7657
14.5942
14.4321
14.2796
14.1352
13.9994
13.8707
13.7499
13.6355
13.5286
13.4272
13.333
13.2433
13.1605
13.0811
13.0086
12.9382
12.8748
14.7657
14.594
14.4319
14.2792
14.1347
13.9985
13.8694
13.7476
13.632
13.5229
13.4193
13.3216
13.2287
13.1411
13.0576
12.9791
12.9042
12.8338
14.7657
14.5938
14.4317
14.2788
14.1343
13.9978
13.8687
13.7466
13.6308
13.5212
13.4173
13.3187
13.2252
13.1364
13.052
12.972
12.8958
12.8235
14.7657
14.5938
14.4316
14.2785
14.134
13.9973
13.8681
13.7458
13.63
13.5203
13.4162
13.3174
13.2237
13.1347
13.0501
12.9697
12.8932
12.8205
14.7657
14.5937
14.4315
14.2783
14.1337
13.997
13.8677
13.7453
13.6294
13.5195
13.4153
13.3165
13.2227
13.1336
13.0489
12.9683
12.8918
12.8189
14.7657
14.5937
14.4314
14.2782
14.1335
13.9968
13.8674
13.7449
13.6289
13.519
13.4148
13.3159
13.2219
13.1327
13.048
12.9674
12.8907
12.8178
14.7657
14.5937
14.4314
14.2782
14.1334
13.9966
13.8672
13.7448
13.6287
13.5188
13.4145
13.3155
13.2216
13.1323
13.0475
12.9669
12.8902
12.8172
14.7657
14.5937
14.4314
14.2782
14.1335
13.9967
13.8673
13.7448
13.6287
13.5188
13.4145
13.3155
13.2215
13.1323
13.0474
12.9668
12.8901
12.8171
14.7657
14.5937
14.4314
14.2782
14.1336
13.9968
13.8674
13.7449
13.6289
13.519
13.4147
13.3158
13.2218
13.1326
13.0478
12.9672
12.8906
12.8176
14.7657
14.5937
14.4315
14.2783
14.1337
13.997
13.8677
13.7453
13.6294
13.5195
13.4155
13.3167
13.2231
13.1342
13.0499
12.9697
12.8937
12.8212
14.7657
14.5937
14.4316
14.2785
14.134
13.9974
13.8685
13.7466
13.6317
13.5229
13.4205
13.3234
13.2321
13.1455
13.064
12.9866
12.914
12.8446
14.7658
14.5936
14.4317
14.2788
14.1355
14.0009
13.8756
13.7586
13.6503
13.5492
13.456
13.3688
13.2887
13.2133
13.1444
13.0788
13.0195
12.9618
14.7656
14.5928
14.4329
14.285
14.1535
14.0357
13.9345
13.8456
13.7695
13.7021
13.6453
13.5939
13.5511
13.5109
13.4785
13.4459
13.4217
13.394
14.7602
14.5949
14.4598
14.3603
14.3015
14.2696
14.2708
14.2798
14.3009
14.3285
14.3644
14.3978
14.4378
14.4716
14.5131
14.5448
14.5876
14.6154
14.7331
14.6932
14.7217
14.8718
15.091
15.3343
15.5843
15.8179
16.0446
16.248
16.448
16.6242
16.8033
16.9582
17.124
17.2622
17.4208
17.5444
14.8009
15.3959
16.2568
17.2513
18.1422
18.9045
19.5742
20.1519
20.684
21.1523
21.611
22.0201
22.4452
22.8231
23.2362
23.5947
24.0077
24.3515
15.814
20.0259
23.4833
25.8826
27.6577
29.037
30.2308
31.2992
32.3368
33.3253
34.3582
35.3565
36.4349
37.4622
38.595
39.6388
40.8238
41.8845
27.6507
42.3596
49.0914
52.4882
54.9725
57.2194
59.5648
62.0635
64.7507
67.5694
70.5678
73.6209
76.8063
79.9695
83.2306
86.4054
89.655
92.7601
147.721
142.927
138.641
134.247
130.046
126.067
122.533
119.52
116.917
114.778
113.054
111.697
110.687
109.936
109.476
109.167
109.115
109.184
0.127969
0.168561
0.317973
0.449114
0.570302
0.705312
0.86305
1.05483
1.28939
1.5692
1.89037
2.24572
2.62675
3.02587
3.43613
3.8522
4.26917
4.68369
5.09239
5.49349
5.88459
6.26495
6.63249
6.98653
7.32472
7.64547
7.94548
8.22154
8.46926
8.68445
8.86271
9.00209
9.08421
9.14535
38.8895
9.20831
9.17499
9.15323
8.98647
8.86779
8.4751
8.78214
40.1052
42.0172
45.7842
48.4989
52.2266
55.6662
59.5148
63.4079
67.5322
71.7949
76.2468
80.8657
85.6673
90.648
95.8141
101.167
106.709
112.445
118.374
124.5
130.824
137.347
144.07
150.994
158.117
165.441
172.962
180.681
188.593
196.698
204.99
213.467
222.122
230.953
239.951
249.111
258.425
267.885
277.483
287.211
297.056
307.01
317.06
327.195
337.401
347.664
357.969
368.299
378.634
388.955
399.238
409.46
419.594
429.618
439.518
449.308
459.062
468.664
478.143
487.473
496.649
505.651
514.467
523.08
531.475
539.639
547.556
555.213
562.594
569.689
576.482
582.964
589.12
594.942
600.418
605.538
610.295
614.68
618.685
622.306
625.536
628.371
630.808
632.846
634.482
635.717
636.549
637.004
637.019
636.632
635.74
634.549
633.073
631.182
628.878
626.216
623.194
619.825
616.119
612.087
607.74
603.09
598.15
592.934
587.453
581.723
575.758
569.571
563.178
556.594
549.833
542.911
535.842
528.643
521.327
513.911
506.41
498.839
491.218
483.568
475.936
468.501
462.842
459.801
457.109
454.439
451.762
449.08
446.393
443.702
441.001
438.273
435.483
432.552
429.319
425.341
419.621
396.183
0.670486
0.422144
0.429025
0.484663
0.570045
0.681611
0.822201
0.995403
1.20343
1.446
1.72035
2.02225
2.34689
2.68971
3.04659
3.41408
3.78933
4.17025
4.55528
4.94361
5.3349
5.72948
6.12802
6.53182
6.94261
7.36309
7.79724
8.25163
8.73689
9.28135
9.92907
10.7461
11.8189
13.2869
15.3415
12.3804
13.599
14.8008
16.2847
18.0651
19.5934
22.9202
26.1226
27.323
29.0321
30.6215
32.375
34.1382
35.992
37.8953
39.8715
41.9106
44.0198
46.1973
48.4458
50.7655
53.1576
55.6229
58.1619
60.7753
63.4633
66.2263
69.0642
71.9771
74.9647
78.0267
81.1624
84.3713
87.6523
91.0045
94.4263
97.9165
101.473
105.095
108.779
112.524
116.326
120.184
124.093
128.052
132.056
136.101
140.185
144.302
148.448
152.619
156.808
161.011
165.22
169.431
173.635
177.826
181.997
186.141
190.254
194.335
198.394
202.453
206.566
210.635
214.656
218.621
222.525
226.364
230.13
233.818
237.423
240.938
244.357
247.676
250.888
253.989
256.974
259.837
262.574
265.18
267.651
269.984
272.174
274.219
276.114
277.858
279.448
280.881
282.157
283.274
284.231
285.026
285.66
286.132
286.433
286.562
286.533
286.347
286.034
285.554
284.911
284.116
283.172
282.082
280.85
279.48
277.975
276.34
274.579
272.697
270.7
268.592
266.378
264.064
261.655
259.158
256.577
253.919
251.19
248.395
245.541
242.633
239.679
236.684
233.656
230.605
227.548
224.552
221.921
219.815
217.848
215.908
213.976
212.05
210.13
208.217
206.314
204.421
202.537
200.662
198.781
196.941
195.034
191.803
1.45255
0.759599
0.687353
0.717935
0.792721
0.901631
1.04359
1.21923
1.42848
1.66977
1.9401
2.23566
2.55248
2.88697
3.2361
3.59753
3.96955
4.35112
4.74177
5.14169
5.55158
5.97274
6.40689
6.85635
7.32392
7.81324
8.32901
8.8779
9.46978
10.1099
10.8045
11.5656
12.4235
13.4118
14.5719
15.1173
16.2367
17.4224
18.6735
19.968
21.0746
22.515
23.9651
25.2413
26.5993
27.9931
29.4497
30.9534
32.5113
34.12
35.7824
37.4982
39.2685
41.0936
42.9744
44.9112
46.9045
48.9548
51.0624
53.2275
55.4503
57.731
60.0696
62.4659
64.9197
67.4309
69.9988
72.623
75.3028
78.0375
80.8259
83.6672
86.56
89.5029
92.4944
95.5327
98.6161
101.742
104.91
108.115
111.356
114.63
117.934
121.265
124.619
127.994
131.384
134.787
138.197
141.612
145.027
148.438
151.842
155.236
158.619
161.992
165.357
168.719
172.072
175.391
178.671
181.908
185.096
188.231
191.307
194.32
197.265
200.137
202.933
205.646
208.273
210.809
213.25
215.593
217.832
219.966
221.989
223.899
225.693
227.368
228.922
230.352
231.656
232.832
233.88
234.797
235.584
236.238
236.759
237.147
237.398
237.503
237.496
237.356
237.096
236.705
236.185
235.54
234.773
233.887
232.884
231.768
230.543
229.211
227.776
226.242
224.614
222.894
221.088
219.201
217.235
215.197
213.09
210.92
208.692
206.409
204.078
201.703
199.289
196.842
194.367
191.872
189.372
186.901
184.569
182.434
180.384
178.365
176.362
174.371
172.392
170.429
168.483
166.561
164.667
162.815
161.022
159.369
157.861
156.436
2.37482
1.14372
0.98384
0.989222
1.05997
1.17305
1.32226
1.50558
1.72153
1.968
2.24208
2.54043
2.85974
3.1971
3.55021
3.91746
4.29789
4.69118
5.09757
5.51785
5.95325
6.40546
6.87649
7.36874
7.88492
8.42816
9.00195
9.61007
10.2562
10.9434
11.6753
12.4554
13.2883
14.1774
15.1274
16.0308
17.0322
18.0877
19.1861
20.3221
21.4602
22.6718
23.9344
25.204
26.5135
27.8661
29.267
30.7156
32.213
33.7596
35.3562
37.0037
38.7025
40.4535
42.2572
44.1143
46.0251
47.9901
50.0097
52.0844
54.2144
56.4001
58.6415
60.9388
63.2919
65.7009
68.1653
70.685
73.2595
75.8882
78.5703
81.3051
84.0915
86.9284
89.8144
92.748
95.7277
98.7515
101.817
104.923
108.067
111.245
114.455
117.695
120.961
124.25
127.558
130.883
134.219
137.565
140.915
144.268
147.619
150.967
154.308
157.642
160.966
164.278
167.567
170.823
174.041
177.216
180.343
183.417
186.432
189.385
192.27
195.082
197.816
200.469
203.035
205.51
207.89
210.171
212.348
214.419
216.38
218.228
219.959
221.571
223.061
224.428
225.669
226.782
227.767
228.621
229.345
229.937
230.396
230.723
230.906
230.963
230.901
230.706
230.387
229.942
229.37
228.675
227.86
226.929
225.883
224.726
223.462
222.094
220.625
219.061
217.404
215.659
213.831
211.924
209.942
207.89
205.773
203.596
201.363
199.079
196.749
194.378
191.971
189.534
187.071
184.591
182.104
179.634
177.232
174.927
172.68
170.464
168.268
166.089
163.928
161.79
159.677
157.597
155.559
153.582
151.689
149.961
148.427
147.142
3.32284
1.54441
1.29069
1.26933
1.33275
1.44661
1.59977
1.78781
2.00806
2.25802
2.53489
2.83573
3.15769
3.49833
3.85577
4.22878
4.61676
5.0197
5.43809
5.87289
6.32538
6.79716
7.29001
7.80585
8.34667
8.91459
9.51173
10.1403
10.8024
11.5001
12.2356
13.0102
13.8252
14.6811
15.5789
16.5058
17.4816
18.5013
19.5619
20.6682
21.8104
23
24.2332
25.5033
26.816
28.1731
29.577
31.0288
32.5297
34.0805
35.6822
37.3357
39.042
40.802
42.6165
44.4866
46.4127
48.3954
50.4353
52.5332
54.6896
56.905
59.1798
61.5145
63.9092
66.3643
68.8796
71.4552
74.0908
76.7861
79.5406
82.3537
85.2245
88.152
91.135
94.1722
97.2619
100.402
103.592
106.827
110.107
113.429
116.789
120.185
123.613
127.07
130.553
134.057
137.58
141.116
144.663
148.216
151.772
155.326
158.875
162.414
165.937
169.44
172.914
176.354
179.753
183.106
186.408
189.652
192.834
195.947
198.987
201.948
204.825
207.613
210.308
212.903
215.395
217.78
220.052
222.209
224.246
226.16
227.948
229.607
231.134
232.528
233.785
234.904
235.885
236.725
237.424
237.982
238.398
238.667
238.784
238.78
238.635
238.352
237.934
237.382
236.697
235.883
234.941
233.877
232.692
231.391
229.977
228.455
226.828
225.101
223.279
221.366
219.367
217.287
215.13
212.902
210.608
208.253
205.843
203.381
200.875
198.328
195.746
193.136
190.501
187.85
185.192
182.544
179.933
177.377
174.865
172.381
169.922
167.485
165.072
162.689
160.341
158.035
155.785
153.612
151.548
149.662
147.979
146.501
4.23814
1.93751
1.58967
1.54087
1.59454
1.70627
1.86023
2.04976
2.27115
2.52154
2.79821
3.09848
3.41989
3.76034
4.11821
4.49251
4.88277
5.28909
5.712
6.15245
6.61168
7.09115
7.59244
8.11722
8.66717
9.24397
9.84927
10.4847
11.1521
11.8529
12.5891
13.3621
14.1734
15.024
15.9148
16.8453
17.819
18.836
19.896
21.0003
22.1477
23.3404
24.5788
25.8623
27.1923
28.5699
29.9966
31.4738
33.0028
34.5848
36.2211
37.9127
39.661
41.467
43.3318
45.2562
47.2417
49.2894
51.4005
53.5759
55.8166
58.1234
60.4972
62.9386
65.4481
68.0264
70.6736
73.3901
76.1758
79.0307
81.9543
84.9461
88.0055
91.1315
94.3229
97.5783
100.896
104.274
107.711
111.203
114.749
118.345
121.988
125.676
129.403
133.166
136.962
140.786
144.633
148.499
152.379
156.269
160.164
164.058
167.945
171.821
175.678
179.511
183.311
187.073
190.79
194.455
198.063
201.606
205.08
208.477
211.791
215.016
218.148
221.178
224.104
226.918
229.616
232.192
234.643
236.964
239.15
241.199
243.105
244.867
246.482
247.947
249.259
250.418
251.422
252.269
252.96
253.494
253.87
254.076
254.133
254.045
253.801
253.405
252.861
252.17
251.334
250.357
249.242
247.992
246.613
245.107
243.48
241.736
239.88
237.917
235.852
233.69
231.438
229.099
226.68
224.187
221.625
219
216.317
213.583
210.803
207.983
205.129
202.246
199.341
196.42
193.493
190.571
187.673
184.811
181.983
179.185
176.414
173.671
170.96
168.285
165.654
163.077
160.568
158.15
155.855
153.744
151.827
150.043
5.08394
2.30676
1.8682
1.79144
1.83344
1.94052
2.09239
2.28036
2.49976
2.74734
3.02041
3.31653
3.63349
3.96949
4.32314
4.6936
5.08049
5.48397
5.90458
6.34326
6.80117
7.27974
7.78047
8.30499
8.85494
9.43194
10.0376
10.6735
11.3411
12.0422
12.7782
13.5509
14.3619
15.2125
16.104
17.0373
18.0138
19.0344
20.0997
21.2108
22.3684
23.5736
24.8275
26.1309
27.485
28.8908
30.35
31.8638
33.4339
35.0618
36.7491
38.4973
40.3079
42.1826
44.1227
46.1298
48.2056
50.3516
52.5692
54.8599
57.2251
59.6659
62.1836
64.7792
67.4537
70.2079
73.0424
75.9577
78.9541
82.0317
85.1903
88.4294
91.7485
95.1466
98.6225
102.175
105.802
109.501
113.27
117.107
121.008
124.97
128.989
133.062
137.184
141.351
145.557
149.799
154.069
158.364
162.678
167.003
171.335
175.667
179.991
184.302
188.59
192.85
197.073
201.252
205.38
209.449
213.451
217.381
221.23
224.992
228.659
232.224
235.682
239.024
242.246
245.34
248.302
251.125
253.805
256.336
258.714
260.935
262.995
264.89
266.618
268.176
269.561
270.773
271.81
272.67
273.355
273.862
274.188
274.328
274.309
274.117
273.753
273.221
272.523
271.662
270.641
269.464
268.134
266.658
265.038
263.281
261.391
259.373
257.234
254.979
252.614
250.145
247.578
244.92
242.176
239.354
236.459
233.498
230.478
227.405
224.285
221.125
217.931
214.709
211.466
208.209
204.946
201.687
198.446
195.233
192.049
188.897
185.775
182.688
179.639
176.636
173.685
170.799
167.993
165.29
162.721
160.338
158.133
156.001
5.83408
2.63986
2.11682
2.01218
2.041
2.14119
2.2884
2.47207
2.6866
2.92843
3.19482
3.4835
3.79252
4.12033
4.46574
4.82806
5.20703
5.60287
6.01617
6.44789
6.89919
7.37146
7.86612
8.38475
8.92918
9.50111
10.1022
10.734
11.3982
12.0964
12.8301
13.6011
14.4109
15.2611
16.1532
17.0885
18.0683
19.0939
20.1664
21.2872
22.4576
23.679
24.9527
26.2798
27.662
29.1009
30.5981
32.1556
33.7751
35.4588
37.2085
39.0262
40.9139
42.8736
44.9074
47.0173
49.2053
51.4735
53.8238
56.2581
58.7782
61.3859
64.0828
66.8703
69.7498
72.7226
75.7894
78.9512
82.2084
85.5613
89.0099
92.5539
96.1926
99.9251
103.75
107.666
111.67
115.761
119.936
124.191
128.523
132.928
137.402
141.94
146.537
151.188
155.886
160.626
165.402
170.207
175.034
179.875
184.724
189.572
194.411
199.234
204.03
208.793
213.512
218.181
222.789
227.329
231.793
236.172
240.457
244.641
248.716
252.673
256.506
260.206
263.767
267.181
270.443
273.546
276.484
279.252
281.845
284.258
286.487
288.528
290.379
292.037
293.498
294.763
295.829
296.696
297.363
297.832
298.09
298.155
298.031
297.713
297.203
296.506
295.624
294.56
293.319
291.906
290.325
288.581
286.68
284.627
282.429
280.093
277.624
275.029
272.315
269.489
266.558
263.529
260.409
257.206
253.927
250.579
247.169
243.704
240.192
236.64
233.054
229.442
225.81
222.166
218.517
214.874
211.245
207.642
204.068
200.528
197.023
193.559
190.142
186.778
183.476
180.25
177.115
174.094
171.216
168.523
165.993
163.493
6.47222
2.92864
2.32938
2.19757
2.21211
2.30349
2.44379
2.62075
2.82797
3.06156
3.31873
3.59734
3.89567
4.21237
4.54651
4.89755
5.26524
5.64977
6.05208
6.47325
6.91454
7.37752
7.86401
8.37571
8.91365
9.47934
10.0745
10.7007
11.3596
12.0529
12.7824
13.5496
14.3563
15.2041
16.0948
17.0299
18.0111
19.0399
20.118
21.247
22.4288
23.6656
24.9597
26.3137
27.7282
29.2046
30.7451
32.3524
34.0291
35.7776
37.6003
39.4998
41.4785
43.539
45.684
47.916
50.2376
52.6514
55.1599
57.7655
60.4706
63.2773
66.1879
69.2042
72.3281
75.561
78.9042
82.3588
85.9256
89.6049
93.3968
97.3011
101.317
105.443
109.679
114.021
118.469
123.018
127.665
132.408
137.241
142.16
147.159
152.234
157.377
162.584
167.846
173.157
178.508
183.893
189.302
194.727
200.159
205.589
211.008
216.404
221.77
227.094
232.367
237.58
242.721
247.783
252.754
257.626
262.39
267.035
271.554
275.936
280.174
284.258
288.182
291.938
295.518
298.915
302.124
305.138
307.951
310.559
312.958
315.143
317.111
318.86
320.387
321.69
322.77
323.625
324.257
324.661
324.834
324.794
324.536
324.061
323.375
322.479
321.378
320.076
318.578
316.89
315.017
312.965
310.741
308.352
305.804
303.106
300.263
297.285
294.178
290.951
287.612
284.168
280.629
277.001
273.293
269.514
265.671
261.772
257.825
253.838
249.818
245.774
241.712
237.64
233.567
229.5
225.45
221.425
217.431
213.475
209.56
205.692
201.879
198.128
194.45
190.858
187.367
184.001
180.785
177.752
174.871
171.993
6.98976
3.16849
2.50277
2.34506
2.34468
2.4257
2.55718
2.72541
2.92331
3.14665
3.39263
3.65922
3.94482
4.24811
4.5688
4.90691
5.26295
5.63759
6.03055
6.44259
6.87481
7.32856
7.80518
8.30613
8.83308
9.38782
9.97229
10.5883
11.2376
11.9221
12.6435
13.4037
14.2045
15.048
15.9359
16.8704
17.8533
18.8867
19.9728
21.1137
22.3115
23.5686
24.887
26.2687
27.7168
29.235
30.8253
32.4906
34.2343
36.0591
37.9683
39.9647
42.0515
44.2319
46.5092
48.8865
51.3671
53.9541
56.6507
59.4598
62.3845
65.4274
68.5912
71.8782
75.2906
78.8304
82.499
86.2978
90.2275
94.2888
98.4816
102.806
107.26
111.843
116.553
121.388
126.344
131.418
136.607
141.905
147.307
152.808
158.402
164.081
169.839
175.668
181.559
187.503
193.493
199.518
205.569
211.635
217.705
223.77
229.818
235.837
241.817
247.746
253.614
259.407
265.117
270.731
276.239
281.63
286.894
292.02
296.998
301.819
306.472
310.949
315.24
319.338
323.235
326.922
330.394
333.644
336.666
339.455
342.006
344.315
346.38
348.196
349.763
351.079
352.144
352.957
353.519
353.826
353.885
353.7
353.271
352.603
351.7
350.567
349.207
347.627
345.831
343.827
341.621
339.22
336.632
333.865
330.926
327.824
324.567
321.165
317.625
313.957
310.17
306.272
302.274
298.183
294.01
289.762
285.449
281.08
276.663
272.207
267.72
263.21
258.685
254.154
249.625
245.106
240.606
236.134
231.697
227.302
222.955
218.662
214.433
210.275
206.199
202.22
198.352
194.619
191.041
187.647
184.397
181.134
7.38471
3.35811
2.63679
2.45381
2.43922
2.50867
2.62975
2.78761
2.97456
3.18611
3.41927
3.67266
3.94543
4.23764
4.54762
4.87475
5.21876
5.57959
5.95817
6.3558
6.77371
7.21324
7.67584
8.16318
8.67725
9.21985
9.79267
10.3975
11.0364
11.7112
12.4239
13.1767
13.9716
14.811
15.6971
16.6322
17.6188
18.6594
19.7566
20.9129
22.1312
23.4144
24.7653
26.1868
27.6826
29.2545
30.9058
32.642
34.468
36.387
38.4024
40.518
42.7376
45.0648
47.5038
50.0585
52.7326
55.5301
58.4546
61.5099
64.6993
68.0262
71.4935
75.1041
78.8605
82.7648
86.8187
91.0236
95.3803
99.8892
104.55
109.362
114.324
119.435
124.691
130.089
135.626
141.297
147.098
153.022
159.063
165.214
171.468
177.817
184.252
190.763
197.341
203.976
210.657
217.373
224.112
230.862
237.612
244.349
251.061
257.734
264.355
270.913
277.395
283.787
290.077
296.254
302.305
308.218
313.981
319.584
325.015
330.263
335.318
340.171
344.811
349.23
353.419
357.37
361.077
364.532
367.73
370.665
373.333
375.729
377.85
379.694
381.26
382.545
383.551
384.277
384.725
384.895
384.791
384.414
383.768
382.861
381.697
380.28
378.617
376.713
374.575
372.211
369.629
366.836
363.842
360.655
357.284
353.739
350.029
346.165
342.155
338.01
333.739
329.354
324.863
320.277
315.607
310.86
306.048
301.18
296.265
291.313
286.332
281.332
276.32
271.306
266.298
261.304
256.334
251.396
246.499
241.649
236.854
232.122
227.461
222.881
218.393
214.012
209.752
205.634
201.678
197.908
194.276
190.629
7.66104
3.4982
2.7324
2.52658
2.49791
2.55501
2.66453
2.81061
2.98561
3.18553
3.40838
3.65125
3.91239
4.19017
4.48439
4.7953
5.12316
5.46869
5.83291
6.21662
6.62093
7.04716
7.49681
7.97158
8.47328
9.00379
9.56505
10.1591
10.788
11.4541
12.1595
12.9069
13.6986
14.5372
15.4256
16.3665
17.3629
18.4179
19.5347
20.7163
21.9662
23.2884
24.6863
26.1626
27.7189
29.3611
31.0963
32.9284
34.8626
36.9049
39.0589
41.3289
43.7194
46.2349
48.8801
51.6598
54.5784
57.6404
60.8501
64.2118
67.7292
71.4061
75.2459
79.2515
83.4256
87.7703
92.2873
96.9777
101.842
106.88
112.091
117.475
123.027
128.747
134.63
140.672
146.869
153.214
159.702
166.324
173.073
179.942
186.92
193.998
201.165
208.411
215.724
223.092
230.503
237.944
245.401
252.862
260.312
267.737
275.123
282.456
289.722
296.907
303.996
310.975
317.832
324.552
331.123
337.532
343.765
349.811
355.659
361.295
366.711
371.895
376.836
381.527
385.958
390.12
394.007
397.612
400.929
403.952
406.677
409.1
411.219
413.031
414.535
415.73
416.617
417.197
417.472
417.446
417.123
416.495
415.578
414.376
412.897
411.145
409.127
406.849
404.321
401.55
398.546
395.318
391.875
388.228
384.386
380.36
376.161
371.8
367.287
362.633
357.85
352.948
347.938
342.831
337.638
332.37
327.036
321.648
316.216
310.749
305.256
299.748
294.234
288.721
283.22
277.739
272.287
266.872
261.504
256.19
250.939
245.758
240.658
235.648
230.74
225.947
221.286
216.775
212.43
208.275
204.257
200.23
7.82948
3.59234
2.79266
2.56675
2.52432
2.56865
2.66667
2.80294
2.96832
3.1574
3.36642
3.59401
3.83925
4.10165
4.38125
4.67791
4.99187
5.32376
5.67441
6.04483
6.43621
6.84993
7.28758
7.7509
8.24181
8.76235
9.31468
9.90108
10.524
11.1859
11.8897
12.6382
13.4345
14.2816
15.1827
16.1412
17.1608
18.2461
19.4003
20.627
21.9292
23.3094
24.7712
26.3222
27.9701
29.7208
31.5793
33.5509
35.6412
37.857
40.2033
42.6852
45.3081
48.0775
50.9989
54.0775
57.3186
60.727
64.3075
68.0645
72.0022
76.1243
80.4342
84.9347
89.6281
94.5162
99.6002
104.88
110.357
116.028
121.892
127.947
134.189
140.614
147.218
153.993
160.935
168.035
175.285
182.677
190.2
197.846
205.601
213.456
221.397
229.413
237.489
245.612
253.768
261.943
270.121
278.287
286.426
294.523
302.563
310.528
318.405
326.178
333.831
341.35
348.721
355.928
362.958
369.798
376.433
382.853
389.043
394.993
400.691
406.126
411.288
416.167
420.756
425.045
429.027
432.697
436.047
439.073
441.772
444.139
446.172
447.869
449.231
450.256
450.947
451.305
451.334
451.047
450.423
449.479
448.224
446.666
444.811
442.665
440.235
437.53
434.56
431.334
427.861
424.153
420.22
416.073
411.724
407.183
402.462
397.574
392.53
387.342
382.021
376.581
371.031
365.385
359.654
353.848
347.98
342.06
336.099
330.107
324.095
318.072
312.048
306.031
300.032
294.059
288.122
282.229
276.388
270.61
264.902
259.272
253.732
248.291
242.961
237.756
232.692
227.784
223.049
218.507
214.104
209.705
7.88863
3.64128
2.81988
2.57764
2.52361
2.5586
2.64696
2.77108
2.92267
3.09735
3.29259
3.50679
3.73883
3.98817
4.25466
4.53843
4.83987
5.15965
5.49866
5.85803
6.23907
6.64333
7.07254
7.52868
8.01392
8.53065
9.08134
9.6686
10.2953
10.9644
11.6794
12.4441
13.2625
14.1378
15.0737
16.074
17.1421
18.2798
19.4925
20.7873
22.1703
23.6482
25.2279
26.9151
28.7167
30.6395
32.6897
34.8742
37.2003
39.6742
42.3025
45.0918
48.0485
51.1787
54.4885
57.9837
61.6696
65.5512
69.6332
73.9197
78.4145
83.1208
88.0412
93.1778
98.5319
104.104
109.894
115.9
122.122
128.556
135.198
142.044
149.09
156.328
163.752
171.353
179.125
187.055
195.136
203.355
211.702
220.163
228.726
237.378
246.105
254.892
263.724
272.585
281.461
290.336
299.192
308.014
316.786
325.49
334.111
342.631
351.035
359.306
367.43
375.389
383.169
390.756
398.135
405.292
412.214
418.888
425.302
431.444
437.301
442.865
448.125
453.071
457.695
461.989
465.946
469.561
472.828
475.742
478.3
480.499
482.339
483.816
484.933
485.689
486.086
486.13
485.837
485.182
484.18
482.842
481.176
479.189
476.891
474.286
471.384
468.195
464.73
460.999
457.012
452.782
448.319
443.637
438.747
433.661
428.393
422.954
417.358
411.617
405.744
399.752
393.652
387.458
381.181
374.834
368.427
361.974
355.484
348.968
342.438
335.903
329.373
322.858
316.367
309.909
303.493
297.129
290.825
284.59
278.434
272.364
266.392
260.528
254.784
249.174
243.712
238.413
233.292
228.369
223.59
218.834
7.87416
3.65263
2.82011
2.56878
2.50571
2.52836
2.60361
2.71517
2.85476
3.01764
3.20112
3.40363
3.62425
3.86258
4.11854
4.39243
4.68479
4.9965
5.32866
5.68262
6.0599
6.4623
6.8919
7.35105
7.84252
8.36983
8.93568
9.54298
10.1951
10.8956
11.6479
12.4545
13.3179
14.2456
15.2433
16.3167
17.4719
18.7161
20.0555
21.4963
23.0457
24.7117
26.5023
28.4249
30.4872
32.6968
35.0617
37.5896
40.2881
43.1657
46.23
49.489
52.9494
56.6175
60.4996
64.601
68.9262
73.4793
78.2637
83.282
88.5366
94.0286
99.759
105.727
111.933
118.374
125.048
131.951
139.079
146.426
153.986
161.752
169.717
177.87
186.204
194.708
203.37
212.18
221.124
230.191
239.365
248.635
257.985
267.399
276.864
286.362
295.878
305.396
314.899
324.37
333.792
343.149
352.423
361.597
370.655
379.58
388.356
396.966
405.395
413.626
421.646
429.439
436.992
444.291
451.322
458.074
464.534
470.691
476.534
482.053
487.238
492.082
496.575
500.711
504.483
507.887
510.917
513.571
515.845
517.738
519.248
520.375
521.122
521.49
521.477
521.12
520.37
519.256
517.785
515.966
513.805
511.314
508.499
505.369
501.934
498.204
494.192
489.908
485.365
480.574
475.549
470.301
464.845
459.194
453.359
447.356
441.197
434.896
428.465
421.919
415.269
408.53
401.713
394.83
387.895
380.918
373.912
366.886
359.853
352.822
345.803
338.806
331.841
324.916
318.041
311.225
304.477
297.805
291.219
284.729
278.343
272.074
265.933
259.932
254.087
248.412
242.919
237.628
232.488
227.396
7.83007
3.64585
2.80665
2.5434
2.46872
2.48067
2.54562
2.64705
2.77667
2.93002
3.10457
3.29894
3.51239
3.74469
3.99596
4.26674
4.55789
4.87076
5.20735
5.56935
5.95846
6.37695
6.82736
7.31232
7.83421
8.39414
8.99706
9.64851
10.3535
11.1173
11.9454
12.8442
13.8209
14.8812
16.032
17.2811
18.6366
20.1076
21.7027
23.4303
25.2996
27.3198
29.5003
31.8503
34.3787
37.0944
40.0059
43.1213
46.4475
49.9903
53.7605
57.7705
62.0241
66.526
71.2819
76.2946
81.5655
87.095
92.8828
98.9281
105.229
111.784
118.588
125.639
132.932
140.46
148.218
156.199
164.393
172.793
181.39
190.172
199.13
208.253
217.528
226.943
236.485
246.142
255.898
265.741
275.655
285.626
295.638
305.676
315.725
325.767
335.788
345.77
355.697
365.552
375.32
384.982
394.523
403.927
413.177
422.257
431.152
439.846
448.324
456.571
464.573
472.317
479.789
486.977
493.867
500.45
506.712
512.645
518.239
523.482
528.368
532.889
537.037
540.807
544.193
547.191
549.797
552.009
553.824
555.243
556.267
556.889
557.123
556.97
556.441
555.513
554.208
552.532
550.493
548.098
545.358
542.283
538.88
535.159
531.132
526.809
522.203
517.326
512.191
506.811
501.198
495.367
489.331
483.103
476.697
470.128
463.408
456.552
449.573
442.485
435.301
428.033
420.696
413.301
405.861
398.387
390.891
383.384
375.877
368.381
360.904
353.457
346.05
338.691
331.389
324.153
316.992
309.915
302.931
296.049
289.28
282.634
276.122
269.759
263.555
257.527
251.685
246.05
240.571
235.173
7.73661
3.61861
2.77484
2.50354
2.42151
2.42591
2.48379
2.57894
2.70336
2.85285
3.0253
3.21998
3.43662
3.67508
3.93583
4.21981
4.52817
4.86204
5.22177
5.61014
6.03125
6.48893
6.98718
7.53043
8.12371
8.77353
9.48545
10.2657
11.1217
12.0612
13.0928
14.226
15.4707
16.8366
18.3337
19.9729
21.7652
23.7225
25.856
28.1769
30.6959
33.4239
36.3712
39.5477
42.9624
46.6235
50.5382
54.7132
59.1537
63.8628
68.8436
74.0948
79.6208
85.427
91.5268
97.9128
104.577
111.51
118.706
126.154
133.849
141.781
149.941
158.322
166.912
175.702
184.681
193.84
203.167
212.65
222.277
232.038
241.919
251.908
261.993
272.161
282.398
292.692
303.029
313.395
323.776
334.158
344.528
354.87
365.17
375.413
385.585
395.671
405.655
415.522
425.258
434.847
444.275
453.527
462.588
471.444
480.08
488.485
496.642
504.541
512.166
519.508
526.552
533.289
539.706
545.795
551.545
556.947
561.992
566.671
570.978
574.906
578.449
581.602
584.362
586.724
588.685
590.248
591.405
592.161
592.522
592.465
592.06
591.22
590.003
588.402
586.424
584.077
581.368
578.308
574.908
571.175
567.119
562.751
558.081
553.124
547.89
542.392
536.645
530.66
524.451
518.032
511.418
504.621
497.656
490.536
483.276
475.89
468.39
460.791
453.106
445.347
437.528
429.661
421.758
413.831
405.891
397.949
390.016
382.101
374.215
366.366
358.565
350.819
343.137
335.529
328.002
320.565
313.228
305.999
298.888
291.905
285.063
278.373
271.848
265.501
259.343
253.396
247.609
241.94
7.63243
3.56896
2.72961
2.45763
2.37423
2.37827
2.43844
2.53839
2.67037
2.83047
3.01653
3.22688
3.46139
3.72203
4.0107
4.32973
4.68195
5.07094
5.50153
5.97848
6.50708
7.09397
7.74671
8.47371
9.28438
10.1895
11.2001
12.3285
13.5873
14.9903
16.5518
18.2872
20.212
22.3419
24.6918
27.2759
30.1084
33.2029
36.572
40.2261
44.1735
48.4213
52.9761
57.8436
63.0256
68.5211
74.329
80.4499
86.8806
93.6108
100.629
107.92
115.474
123.282
131.327
139.628
148.167
156.921
165.87
175
184.295
193.745
203.334
213.053
222.89
232.832
242.868
252.989
263.183
273.439
283.748
294.099
304.481
314.885
325.301
335.717
346.125
356.514
366.873
377.192
387.459
397.665
407.797
417.845
427.796
437.64
447.365