/*--------------------------------*- C++ -*----------------------------------*\
| =========                 |                                                 |
| \\      /  F ield         | OpenFOAM: The Open Source CFD Toolbox           |
|  \\    /   O peration     | Version:  5.x                                   |
|   \\  /    A nd           | Web:      www.OpenFOAM.org                      |
|    \\/     M anipulation  |                                                 |
\*---------------------------------------------------------------------------*/
FoamFile
{
    version     2.0;
    format      ascii;
    class       volScalarField;
    location    "500";
    object      k;
}
// * * * * * * * * * * * * * * * * * * * * * * * * * * * * * * * * * * * * * //

dimensions      [0 2 -2 0 0 0 0];

internalField   nonuniform List<scalar> 
12225
(
0.362429
0.343827
0.327056
0.309338
0.294672
0.283248
0.27517
0.27125
0.271561
0.274666
0.279695
0.285476
0.295466
0.302784
0.313767
0.322054
0.335413
0.340143
0.443856
0.475197
0.467991
0.456045
0.458849
0.468075
0.487105
0.513526
0.541963
0.572187
0.602941
0.630349
0.659325
0.680872
0.70705
0.721812
0.746035
0.753549
0.390784
0.42
0.423312
0.42026
0.415162
0.411683
0.412188
0.414412
0.419765
0.427107
0.436963
0.44659
0.458529
0.469048
0.481135
0.492186
0.502492
0.514728
0.377375
0.386528
0.39155
0.391905
0.391031
0.389021
0.386989
0.385475
0.38442
0.384447
0.384912
0.38591
0.387765
0.389868
0.392262
0.395384
0.397663
0.401643
0.374369
0.375513
0.377733
0.378178
0.377875
0.377014
0.375515
0.373898
0.37229
0.370795
0.369607
0.368454
0.367668
0.367015
0.366553
0.366324
0.366141
0.366303
0.373795
0.372349
0.372051
0.371644
0.370987
0.370105
0.368965
0.367617
0.36622
0.364729
0.363345
0.361936
0.360651
0.359426
0.358282
0.357266
0.356249
0.355465
0.373808
0.371627
0.370033
0.368724
0.367528
0.366345
0.365151
0.363874
0.362591
0.361247
0.359934
0.358609
0.357325
0.356074
0.354857
0.353713
0.352574
0.351554
0.373831
0.37155
0.369556
0.367807
0.366245
0.364789
0.363419
0.362068
0.360756
0.359443
0.358161
0.356895
0.355657
0.354454
0.353276
0.352153
0.351042
0.350011
0.373835
0.371555
0.369439
0.367494
0.365719
0.364073
0.362545
0.36109
0.359707
0.358369
0.357078
0.355826
0.35461
0.353436
0.352292
0.351198
0.350124
0.349113
0.373832
0.371561
0.369418
0.367399
0.365515
0.36375
0.3621
0.360546
0.359078
0.357683
0.356352
0.355079
0.353857
0.352687
0.351557
0.350478
0.349429
0.348438
0.373829
0.371561
0.369413
0.367377
0.365454
0.363637
0.361922
0.360303
0.358771
0.357321
0.355943
0.354635
0.353387
0.352198
0.35106
0.349977
0.348932
0.347945
0.373828
0.371558
0.369408
0.367369
0.365436
0.363602
0.361864
0.360215
0.358652
0.357168
0.355758
0.354419
0.353145
0.351933
0.350777
0.349678
0.348625
0.347627
0.373827
0.371555
0.369403
0.367362
0.365425
0.363587
0.361842
0.360184
0.358608
0.357111
0.355686
0.354332
0.353042
0.351815
0.350644
0.349531
0.348468
0.347457
0.373826
0.371554
0.369399
0.367356
0.365417
0.363576
0.361828
0.360167
0.358587
0.357085
0.355655
0.354294
0.352998
0.351763
0.350586
0.349465
0.348395
0.347376
0.373826
0.371552
0.369396
0.367351
0.365411
0.363568
0.361818
0.360154
0.358572
0.357068
0.355635
0.354272
0.352972
0.351735
0.350555
0.34943
0.348357
0.347334
0.373825
0.371551
0.369394
0.367348
0.365406
0.363562
0.36181
0.360145
0.358561
0.357055
0.355621
0.354255
0.352955
0.351715
0.350533
0.349407
0.348332
0.347306
0.373825
0.371551
0.369393
0.367346
0.365403
0.363558
0.361805
0.360139
0.358554
0.357046
0.355611
0.354244
0.352942
0.351701
0.350518
0.34939
0.348314
0.347287
0.373825
0.37155
0.369393
0.367345
0.365402
0.363556
0.361803
0.360136
0.35855
0.357042
0.355606
0.354238
0.352935
0.351694
0.35051
0.349381
0.348304
0.347277
0.373825
0.371551
0.369393
0.367345
0.365402
0.363557
0.361803
0.360136
0.35855
0.357042
0.355606
0.354238
0.352935
0.351693
0.350509
0.34938
0.348303
0.347275
0.373825
0.371551
0.369393
0.367347
0.365404
0.363559
0.361805
0.360139
0.358554
0.357045
0.35561
0.354242
0.352939
0.351698
0.350514
0.349386
0.348309
0.347282
0.373825
0.371551
0.369395
0.367349
0.365407
0.363562
0.36181
0.360145
0.358561
0.357054
0.35562
0.354255
0.352955
0.351716
0.350535
0.349409
0.348336
0.347311
0.373826
0.371552
0.369396
0.367351
0.365411
0.36357
0.361822
0.360162
0.358586
0.357087
0.355663
0.354307
0.353016
0.351787
0.350616
0.349498
0.348432
0.347414
0.373826
0.371553
0.369398
0.367358
0.365429
0.363606
0.361882
0.360251
0.358705
0.357238
0.355843
0.354515
0.353248
0.352038
0.350883
0.349777
0.348719
0.347705
0.373827
0.371549
0.369411
0.367419
0.365561
0.363828
0.362199
0.360659
0.359193
0.357789
0.356442
0.355145
0.353895
0.352689
0.351528
0.350407
0.349329
0.348288
0.373814
0.371555
0.369597
0.367866
0.366291
0.364816
0.363387
0.361979
0.360583
0.359199
0.357831
0.356485
0.35517
0.353887
0.352646
0.351443
0.35029
0.349176
0.373752
0.371964
0.370924
0.369938
0.368939
0.367779
0.366428
0.36494
0.363369
0.361767
0.360172
0.358609
0.357102
0.355659
0.354297
0.353002
0.351801
0.35066
0.374118
0.375088
0.376552
0.376397
0.375758
0.374113
0.371997
0.369776
0.367557
0.365453
0.363518
0.361761
0.360229
0.358882
0.35773
0.356729
0.355941
0.355239
0.377887
0.390873
0.393895
0.392207
0.388462
0.383658
0.379513
0.376223
0.373571
0.371734
0.370564
0.370021
0.370103
0.370494
0.371224
0.37232
0.373757
0.37522
0.402951
0.419167
0.414447
0.403772
0.39521
0.38947
0.388452
0.389394
0.391734
0.396185
0.401496
0.407645
0.414062
0.420918
0.427661
0.434624
0.441278
0.448108
0.36672
0.354829
0.344192
0.333281
0.322854
0.312974
0.3042
0.29672
0.29026
0.284949
0.280668
0.277299
0.274793
0.272927
0.271786
0.271018
0.270889
0.27106
0.000446479
0.00270201
0.00509237
0.00718632
0.00911728
0.0112667
0.0137745
0.0168206
0.020542
0.0249762
0.0300592
0.0356747
0.041688
0.0479776
0.0544362
0.0609792
0.0675345
0.0740484
0.0804748
0.0867818
0.0929385
0.0989228
0.104706
0.110262
0.11555
0.120523
0.125126
0.129278
0.132903
0.135892
0.138139
0.139525
0.139875
0.139032
0.137244
0.150943
0.151252
0.150275
0.148115
0.144982
0.142143
0.141948
0.142334
0.151051
0.157893
0.165061
0.172997
0.180579
0.188691
0.196762
0.205112
0.213561
0.222201
0.230982
0.239927
0.249024
0.258277
0.267683
0.277241
0.286952
0.296809
0.306815
0.316963
0.327253
0.337678
0.348238
0.358924
0.369736
0.380662
0.391702
0.402844
0.414087
0.425418
0.436833
0.44832
0.459874
0.471482
0.483139
0.49483
0.506548
0.518281
0.530019
0.541749
0.553461
0.565142
0.576778
0.588357
0.599865
0.611287
0.622607
0.633806
0.644868
0.655769
0.666489
0.677004
0.687297
0.697358
0.707208
0.716927
0.726401
0.735663
0.744691
0.753486
0.762032
0.770321
0.778342
0.786085
0.793541
0.8007
0.807553
0.814091
0.820307
0.826192
0.831739
0.836941
0.841793
0.846288
0.850422
0.854189
0.857586
0.86061
0.863258
0.865528
0.867419
0.86893
0.870062
0.870816
0.871194
0.871199
0.870833
0.870086
0.868952
0.867357
0.865484
0.863347
0.860827
0.857927
0.854695
0.85113
0.847244
0.843044
0.838538
0.833738
0.828652
0.823291
0.817665
0.811785
0.805662
0.799308
0.792735
0.785954
0.778978
0.771819
0.764489
0.757001
0.749368
0.741602
0.733717
0.725725
0.717642
0.709482
0.701267
0.693041
0.684978
0.678622
0.674814
0.671345
0.667891
0.664425
0.660947
0.65746
0.653963
0.650451
0.646907
0.643295
0.639539
0.635479
0.630676
0.624138
0.599831
0.00233958
0.0102151
0.0156836
0.0197281
0.0232625
0.0266814
0.0303202
0.0344031
0.0390484
0.044278
0.0500412
0.0562486
0.0627971
0.0695879
0.0765339
0.083563
0.0906158
0.0976464
0.104619
0.11151
0.118302
0.124984
0.131548
0.137985
0.144283
0.150423
0.156374
0.162098
0.167547
0.172672
0.177444
0.1819
0.186207
0.190682
0.195809
0.204686
0.210652
0.217227
0.225361
0.234831
0.248169
0.259219
0.270034
0.282275
0.29384
0.306259
0.319154
0.332312
0.345822
0.359639
0.373782
0.388235
0.403004
0.418084
0.433477
0.449182
0.465201
0.481535
0.498183
0.515145
0.532421
0.550011
0.567911
0.58612
0.604634
0.623451
0.642565
0.66197
0.681661
0.701631
0.72187
0.742371
0.763122
0.784115
0.805336
0.826774
0.848414
0.870243
0.892244
0.914404
0.936703
0.959126
0.981652
1.00426
1.02694
1.04966
1.0724
1.09514
1.11786
1.14053
1.16312
1.1856
1.20794
1.23012
1.25208
1.27378
1.29517
1.31619
1.33675
1.35701
1.37698
1.39663
1.41594
1.4349
1.45349
1.47167
1.48944
1.50676
1.52362
1.54
1.55588
1.57124
1.58605
1.60032
1.61401
1.62711
1.6396
1.65148
1.66272
1.67333
1.68327
1.69255
1.70116
1.70909
1.71632
1.72287
1.72872
1.73387
1.73833
1.74208
1.74513
1.74749
1.74893
1.7497
1.75002
1.74966
1.74852
1.74671
1.74422
1.74108
1.73729
1.73287
1.72784
1.7222
1.71597
1.70917
1.70182
1.69393
1.68553
1.67663
1.66725
1.65742
1.64716
1.63648
1.62542
1.61399
1.60222
1.59013
1.57775
1.5651
1.5522
1.53909
1.52581
1.51242
1.49926
1.48649
1.47373
1.46091
1.44803
1.43513
1.4222
1.40927
1.39633
1.38339
1.37042
1.35739
1.34411
1.33052
1.31506
1.28102
0.0050684
0.0178391
0.0252217
0.0306723
0.0354851
0.0401669
0.0450084
0.0501922
0.0558151
0.0619007
0.0684171
0.0753002
0.0824726
0.0898582
0.0973889
0.105008
0.112672
0.120347
0.128011
0.135653
0.14327
0.150867
0.158455
0.166048
0.17366
0.181307
0.189003
0.196769
0.204629
0.212631
0.220837
0.229347
0.238314
0.247935
0.258408
0.270186
0.281986
0.294441
0.307651
0.32164
0.336827
0.351987
0.367295
0.38291
0.398775
0.415113
0.4319
0.449085
0.466661
0.484619
0.502961
0.521681
0.540781
0.56026
0.580117
0.600352
0.620965
0.641956
0.663325
0.685071
0.707191
0.729684
0.752546
0.775774
0.799364
0.82331
0.847606
0.872245
0.897218
0.922516
0.948129
0.974046
1.00025
1.02674
1.05349
1.08049
1.10772
1.13516
1.1628
1.19062
1.21859
1.2467
1.27492
1.30322
1.33159
1.36
1.38842
1.41683
1.44519
1.47347
1.50166
1.52971
1.55759
1.58528
1.61273
1.63993
1.66683
1.69342
1.71967
1.74559
1.77113
1.79627
1.82099
1.84525
1.86903
1.89229
1.91502
1.93717
1.95874
1.97968
1.99997
2.0196
2.03853
2.05675
2.07423
2.09095
2.10689
2.12203
2.13636
2.14986
2.16252
2.17432
2.18525
2.19531
2.20448
2.21275
2.22013
2.22661
2.23219
2.23687
2.24064
2.24348
2.24531
2.24621
2.24644
2.24578
2.24419
2.24172
2.23838
2.23421
2.22921
2.22339
2.21679
2.20941
2.20127
2.19241
2.18283
2.17257
2.16165
2.15009
2.13792
2.12516
2.11185
2.09801
2.08368
2.06888
2.05364
2.03799
2.02196
2.00559
1.98891
1.97196
1.95477
1.93743
1.92012
1.90295
1.88575
1.86849
1.85116
1.8338
1.81643
1.79907
1.78175
1.76448
1.74727
1.73014
1.71302
1.69597
1.67758
1.64798
0.008286
0.0252122
0.0343706
0.0410345
0.0468472
0.052422
0.0580788
0.064005
0.0703002
0.0769972
0.0840791
0.0914986
0.0991946
0.107105
0.115176
0.12336
0.131625
0.139949
0.148322
0.156743
0.165223
0.173781
0.182442
0.191238
0.200206
0.209383
0.218811
0.228537
0.238609
0.249082
0.260018
0.271487
0.283569
0.296334
0.309815
0.324025
0.338719
0.353993
0.369887
0.386397
0.403653
0.421399
0.4395
0.457917
0.476672
0.495836
0.515432
0.535458
0.555914
0.576798
0.598112
0.619856
0.64203
0.664637
0.687676
0.711149
0.735056
0.759398
0.784174
0.809383
0.835025
0.861097
0.887596
0.914518
0.941859
0.969614
0.997775
1.02633
1.05528
1.08461
1.11431
1.14436
1.17476
1.20548
1.23651
1.26784
1.29944
1.33129
1.36338
1.39568
1.42817
1.46081
1.4936
1.52649
1.55946
1.59248
1.62553
1.65856
1.69155
1.72447
1.75727
1.78994
1.82243
1.85472
1.88676
1.91853
1.95
1.98113
2.0119
2.04226
2.07219
2.10165
2.1306
2.15901
2.18685
2.21408
2.24067
2.26659
2.2918
2.31627
2.33998
2.36289
2.38498
2.40622
2.42658
2.44604
2.46458
2.48217
2.4988
2.51444
2.52909
2.54272
2.55532
2.56689
2.5774
2.58686
2.59526
2.60259
2.60886
2.61406
2.61819
2.62123
2.62311
2.62391
2.62387
2.62274
2.62056
2.61735
2.61312
2.60791
2.60172
2.59459
2.58652
2.57755
2.56769
2.55698
2.54543
2.53308
2.51996
2.5061
2.49152
2.47626
2.46035
2.44383
2.42673
2.40909
2.39093
2.3723
2.35324
2.33377
2.31395
2.2938
2.27339
2.25279
2.23211
2.21144
2.19072
2.16993
2.14909
2.12821
2.10734
2.08651
2.06576
2.04513
2.02467
2.00445
1.9845
1.96495
1.94462
1.91739
0.0115937
0.032181
0.0429956
0.0507814
0.0574803
0.0637995
0.0700984
0.0765831
0.0833678
0.0905017
0.097987
0.105795
0.113883
0.122202
0.130709
0.139368
0.148156
0.157059
0.166076
0.175216
0.184498
0.193951
0.203609
0.213513
0.223708
0.234241
0.245159
0.256508
0.268334
0.280679
0.293585
0.307086
0.32122
0.336009
0.351464
0.367563
0.384244
0.40151
0.419351
0.437765
0.456778
0.476336
0.496367
0.516831
0.537722
0.559057
0.580851
0.603114
0.625849
0.64906
0.67275
0.696924
0.721583
0.74673
0.772369
0.7985
0.825126
0.852247
0.879866
0.907981
0.936592
0.965698
0.995296
1.02538
1.05596
1.08701
1.11853
1.15052
1.18296
1.21585
1.24917
1.28291
1.31706
1.35159
1.38649
1.42173
1.45731
1.49319
1.52936
1.56577
1.60242
1.63927
1.67629
1.71345
1.75071
1.78805
1.82543
1.86281
1.90016
1.93744
1.97461
2.01164
2.04848
2.08511
2.12148
2.15755
2.19328
2.22864
2.26357
2.29805
2.33203
2.36547
2.39833
2.43057
2.46215
2.49303
2.52317
2.55253
2.58109
2.60879
2.63562
2.66153
2.68649
2.71047
2.73344
2.75538
2.77626
2.79605
2.81474
2.83229
2.8487
2.86394
2.878
2.89087
2.90254
2.913
2.92224
2.93027
2.93707
2.94265
2.94701
2.95014
2.95194
2.95258
2.95216
2.95052
2.94769
2.94369
2.93854
2.93227
2.9249
2.91645
2.90694
2.89641
2.88488
2.87238
2.85894
2.84459
2.82937
2.81331
2.79645
2.77882
2.76046
2.74141
2.72171
2.7014
2.68051
2.6591
2.6372
2.61485
2.5921
2.56899
2.54558
2.52194
2.49816
2.47431
2.45038
2.42637
2.40231
2.37823
2.35417
2.33019
2.30634
2.28269
2.25931
2.23634
2.21387
2.19207
2.16993
2.14324
0.0147874
0.0385674
0.0508764
0.0596865
0.0671818
0.0741482
0.080983
0.0879135
0.0950716
0.102525
0.110296
0.118376
0.12674
0.135354
0.144187
0.153215
0.16242
0.171799
0.181354
0.191102
0.201068
0.211283
0.221787
0.232623
0.243837
0.255475
0.267581
0.280196
0.293356
0.30709
0.321425
0.336378
0.351966
0.368197
0.385073
0.402585
0.420706
0.439424
0.458723
0.478598
0.49905
0.520065
0.541618
0.563688
0.586263
0.609346
0.632941
0.657055
0.681693
0.706862
0.732568
0.758814
0.785607
0.81295
0.840848
0.869305
0.898324
0.927907
0.958057
0.988775
1.02006
1.05192
1.08434
1.11732
1.15087
1.18497
1.21962
1.25481
1.29054
1.32678
1.36353
1.40077
1.43849
1.47666
1.51527
1.5543
1.59372
1.6335
1.67363
1.71406
1.75477
1.79573
1.8369
1.87825
1.91974
1.96133
2.00298
2.04466
2.08632
2.12791
2.1694
2.21074
2.25189
2.2928
2.33343
2.37373
2.41365
2.45315
2.49217
2.53068
2.56862
2.60595
2.64263
2.6786
2.71382
2.74826
2.78185
2.81457
2.84637
2.87721
2.90705
2.93586
2.96359
2.99021
3.01569
3.04001
3.06312
3.08501
3.10564
3.125
3.14307
3.15982
3.17524
3.18932
3.20204
3.21341
3.2234
3.23202
3.23928
3.24516
3.24967
3.2528
3.25446
3.25487
3.254
3.25179
3.24825
3.24342
3.23731
3.22994
3.22135
3.21156
3.2006
3.18849
3.17528
3.16099
3.14566
3.12933
3.11203
3.0938
3.07468
3.05472
3.03395
3.01242
2.99018
2.96726
2.94371
2.91958
2.89491
2.86976
2.84416
2.81818
2.79186
2.76527
2.7385
2.71159
2.68459
2.6575
2.63035
2.6032
2.5761
2.54911
2.52231
2.49577
2.46962
2.44402
2.41912
2.39508
2.37103
2.34368
0.0177387
0.0442413
0.0578571
0.0675734
0.0757711
0.0832998
0.0905883
0.0978829
0.105332
0.113021
0.12099
0.129251
0.137796
0.146607
0.155665
0.164956
0.174472
0.184214
0.19419
0.204421
0.214932
0.225759
0.236938
0.248513
0.260526
0.273019
0.286031
0.299595
0.313741
0.328489
0.343858
0.359858
0.376497
0.39378
0.411708
0.430274
0.449469
0.469283
0.489704
0.510728
0.53235
0.554567
0.577371
0.600753
0.624708
0.649235
0.674337
0.700019
0.726286
0.753146
0.780606
0.808673
0.837353
0.866653
0.89658
0.927138
0.958333
0.99017
1.02265
1.05578
1.08956
1.12399
1.15908
1.19481
1.23119
1.26821
1.30586
1.34414
1.38304
1.42255
1.46264
1.50331
1.54454
1.5863
1.62858
1.67135
1.71458
1.75825
1.80232
1.84676
1.89153
1.9366
1.98193
2.02748
2.07321
2.11907
2.16502
2.21101
2.25699
2.30292
2.34875
2.39442
2.43988
2.48508
2.52997
2.5745
2.61861
2.66224
2.70534
2.74786
2.78975
2.83095
2.87142
2.9111
2.94994
2.98789
3.02491
3.06094
3.09595
3.12987
3.16268
3.19433
3.22477
3.25398
3.28192
3.30854
3.33383
3.35774
3.38026
3.40135
3.421
3.43919
3.4559
3.47111
3.48482
3.49701
3.50768
3.51683
3.52447
3.53057
3.53517
3.53823
3.5397
3.5398
3.53843
3.53559
3.5313
3.52558
3.51845
3.50995
3.5001
3.48893
3.47648
3.46278
3.44786
3.43176
3.41453
3.3962
3.37682
3.35642
3.33506
3.31277
3.28961
3.26562
3.24085
3.21535
3.18916
3.16235
3.13496
3.10704
3.07864
3.04981
3.02063
2.99114
2.96143
2.93155
2.90155
2.87145
2.84131
2.81117
2.78111
2.75118
2.7215
2.69216
2.6633
2.63511
2.60777
2.58143
2.5553
2.52652
0.0203562
0.0491202
0.0638397
0.0743278
0.0831244
0.0911296
0.0987963
0.106386
0.11406
0.121919
0.130019
0.138391
0.14704
0.155967
0.165163
0.174625
0.184352
0.194351
0.204635
0.215224
0.226146
0.237434
0.249123
0.261252
0.27386
0.286982
0.300654
0.314902
0.329751
0.345219
0.361321
0.378064
0.395457
0.413501
0.4322
0.45155
0.471551
0.492196
0.513482
0.535405
0.557966
0.581164
0.604997
0.629466
0.654569
0.68031
0.706692
0.73372
0.761402
0.789747
0.818762
0.848457
0.87884
0.90992
0.941706
0.974206
1.00743
1.04137
1.07605
1.11147
1.14763
1.18453
1.22218
1.26057
1.2997
1.33957
1.38017
1.42149
1.46352
1.50625
1.54967
1.59375
1.63847
1.68382
1.72977
1.77629
1.82335
1.87091
1.91895
1.96742
2.01628
2.0655
2.11503
2.16481
2.21481
2.26498
2.31526
2.36559
2.41594
2.46623
2.51641
2.56643
2.61622
2.66573
2.71489
2.76365
2.81194
2.8597
2.90687
2.95339
2.99921
3.04426
3.0885
3.13185
3.17428
3.21571
3.2561
3.2954
3.33355
3.37051
3.40623
3.44066
3.47375
3.50548
3.53579
3.56465
3.59203
3.6179
3.64222
3.66497
3.68613
3.70567
3.72358
3.73985
3.75445
3.7674
3.77867
3.78827
3.7962
3.80246
3.80706
3.80998
3.81122
3.81092
3.809
3.80547
3.80037
3.79371
3.78552
3.77584
3.76469
3.75212
3.73815
3.72282
3.70618
3.68826
3.66912
3.64879
3.62731
3.60475
3.58114
3.55654
3.531
3.50457
3.4773
3.44924
3.42046
3.39099
3.36091
3.33026
3.2991
3.26748
3.23547
3.20314
3.17054
3.13775
3.10482
3.07178
3.03871
3.00565
2.97269
2.9399
2.9074
2.87531
2.84378
2.81302
2.78321
2.75451
2.72614
2.69568
0.0225829
0.0531689
0.068782
0.0798982
0.0891829
0.0975748
0.105545
0.113364
0.121205
0.129179
0.137358
0.145782
0.154477
0.163453
0.172715
0.182268
0.192118
0.202278
0.212763
0.223595
0.2348
0.246408
0.258453
0.270968
0.283988
0.297544
0.311666
0.326379
0.341704
0.357659
0.374256
0.391506
0.409416
0.427991
0.447236
0.467154
0.487746
0.509013
0.530957
0.553579
0.576882
0.600871
0.625547
0.650917
0.676985
0.703757
0.73124
0.759441
0.788369
0.818036
0.848453
0.87963
0.911578
0.944309
0.977833
1.01216
1.0473
1.08326
1.12006
1.15768
1.19615
1.23546
1.27562
1.31662
1.35847
1.40116
1.44468
1.48903
1.53419
1.58015
1.6269
1.6744
1.72264
1.7716
1.82124
1.87154
1.92245
1.97395
2.02598
2.07852
2.13151
2.1849
2.23865
2.2927
2.347
2.40149
2.45612
2.51081
2.56552
2.62017
2.67471
2.72907
2.78317
2.83696
2.89037
2.94332
2.99575
3.0476
3.09879
3.14926
3.19894
3.24778
3.29571
3.34267
3.38859
3.43342
3.4771
3.51957
3.56077
3.60066
3.63918
3.67629
3.71193
3.74606
3.77863
3.80962
3.83899
3.86669
3.89271
3.917
3.93955
3.96034
3.97935
3.99656
4.01196
4.02555
4.03732
4.04727
4.05541
4.06173
4.06626
4.06897
4.0699
4.06912
4.06659
4.06232
4.05635
4.0487
4.03941
4.02851
4.01604
4.00202
3.98652
3.96955
3.95118
3.93144
3.91038
3.88806
3.86451
3.8398
3.81398
3.78709
3.7592
3.73036
3.70063
3.67007
3.63873
3.60667
3.57395
3.54063
3.50676
3.47242
3.43765
3.40253
3.36713
3.3315
3.29572
3.25983
3.2239
3.188
3.15222
3.11664
3.08139
3.0466
3.01245
2.97913
2.94684
2.91572
2.88504
2.85282
0.0243889
0.056389
0.0726894
0.0842887
0.0939475
0.102634
0.11083
0.118816
0.126769
0.134809
0.143018
0.151449
0.160139
0.169109
0.178374
0.187949
0.197845
0.20808
0.218672
0.229642
0.241015
0.25282
0.265085
0.277841
0.291117
0.304941
0.31934
0.334336
0.349952
0.366203
0.383104
0.400669
0.418906
0.437825
0.457434
0.47774
0.498749
0.520467
0.542901
0.566057
0.589943
0.614566
0.639936
0.666061
0.692949
0.720612
0.749059
0.778301
0.808353
0.839226
0.870934
0.903492
0.936913
0.971211
1.0064
1.04249
1.07949
1.11742
1.15628
1.19609
1.23684
1.27854
1.32121
1.36482
1.40939
1.45491
1.50138
1.54877
1.59709
1.64631
1.69641
1.74737
1.79916
1.85176
1.90513
1.95924
2.01404
2.06949
2.12555
2.18217
2.2393
2.29688
2.35486
2.41317
2.47175
2.53055
2.58949
2.64851
2.70754
2.76651
2.82534
2.88396
2.9423
3.00028
3.05784
3.11489
3.17135
3.22717
3.28225
3.33654
3.38996
3.44244
3.49392
3.54432
3.59359
3.64165
3.68845
3.73393
3.77802
3.82067
3.86182
3.90143
3.93944
3.9758
4.01048
4.04342
4.0746
4.10398
4.13152
4.1572
4.18099
4.20287
4.22283
4.24084
4.25691
4.27101
4.28315
4.29333
4.30156
4.30784
4.31219
4.31461
4.31514
4.31381
4.31059
4.30552
4.29863
4.28995
4.27952
4.26737
4.25354
4.23808
4.22103
4.20243
4.18233
4.16078
4.13784
4.11355
4.08797
4.06116
4.03316
4.00405
3.97388
3.9427
3.91059
3.87759
3.84377
3.8092
3.77393
3.73803
3.70156
3.66457
3.62715
3.58934
3.55123
3.51288
3.47435
3.43572
3.39705
3.35842
3.31991
3.28164
3.24373
3.20632
3.1696
3.13376
3.099
3.06544
3.0324
2.99821
0.0257671
0.0588122
0.0756062
0.087548
0.0974682
0.106357
0.114703
0.12279
0.130799
0.138858
0.147053
0.155449
0.164089
0.173007
0.182228
0.19177
0.201653
0.211895
0.222514
0.233532
0.244973
0.256862
0.269226
0.282091
0.295485
0.309433
0.32396
0.339089
0.354841
0.371235
0.388287
0.406014
0.424428
0.443544
0.463374
0.483929
0.50522
0.527259
0.550057
0.573624
0.597974
0.623118
0.649069
0.675843
0.703452
0.731912
0.761236
0.791441
0.822542
0.854556
0.887502
0.921394
0.956251
0.992088
1.02892
1.06676
1.10563
1.14553
1.18648
1.22848
1.27154
1.31568
1.36088
1.40716
1.4545
1.5029
1.55236
1.60286
1.65438
1.70691
1.76042
1.81489
1.87028
1.92656
1.98369
2.04163
2.10033
2.15976
2.21984
2.28053
2.34178
2.40351
2.46566
2.52818
2.59098
2.654
2.71716
2.7804
2.84362
2.90676
2.96974
3.03247
3.09488
3.15688
3.21839
3.27933
3.33963
3.39919
3.45795
3.51583
3.57274
3.62862
3.6834
3.737
3.78936
3.8404
3.89006
3.93828
3.985
4.03015
4.07368
4.11553
4.15565
4.194
4.23053
4.26519
4.29794
4.32876
4.35761
4.38445
4.40927
4.43205
4.45275
4.47139
4.48793
4.50238
4.51474
4.525
4.53318
4.53929
4.54335
4.54536
4.54538
4.54345
4.53947
4.53353
4.52566
4.51591
4.50431
4.49089
4.47571
4.4588
4.44021
4.42
4.39821
4.3749
4.35011
4.32392
4.29637
4.26753
4.23746
4.20621
4.17385
4.14044
4.10604
4.07073
4.03456
3.9976
3.95991
3.92156
3.88261
3.84312
3.80317
3.76283
3.72215
3.68122
3.6401
3.59887
3.55759
3.51636
3.47528
3.43444
3.39398
3.35406
3.31486
3.27658
3.23939
3.20342
3.16803
3.13182
0.0267316
0.0604943
0.0776032
0.0897566
0.0998315
0.108833
0.117252
0.125375
0.133385
0.141414
0.149556
0.157881
0.166442
0.175276
0.184413
0.193877
0.20369
0.213871
0.224443
0.235427
0.246844
0.258718
0.271074
0.283937
0.297333
0.311287
0.325822
0.340963
0.356732
0.373149
0.390236
0.408012
0.426495
0.445703
0.465653
0.486364
0.507851
0.53013
0.553216
0.577125
0.601874
0.627479
0.653959
0.681333
0.709622
0.738844
0.769021
0.800171
0.832317
0.865479
0.899677
0.934931
0.971261
1.00868
1.04722
1.08688
1.12768
1.16963
1.21275
1.25704
1.30252
1.34918
1.39703
1.44606
1.49627
1.54766
1.60021
1.6539
1.70872
1.76463
1.82162
1.87964
1.93867
1.99866
2.05957
2.12135
2.18395
2.2473
2.31136
2.37606
2.44133
2.50711
2.57332
2.63989
2.70675
2.77381
2.841
2.90823
2.97542
3.04249
3.10935
3.17591
3.24209
3.3078
3.37295
3.43746
3.50125
3.56422
3.62629
3.68739
3.74744
3.80635
3.86406
3.92048
3.97555
4.02919
4.08134
4.13194
4.18091
4.22819
4.27373
4.31748
4.35937
4.39935
4.4374
4.47344
4.50746
4.53942
4.56927
4.597
4.62258
4.64598
4.6672
4.68622
4.70302
4.71761
4.72999
4.74016
4.74814
4.75393
4.75755
4.75904
4.75847
4.75582
4.751
4.74413
4.73525
4.72439
4.7116
4.69691
4.68038
4.66205
4.64196
4.62018
4.59676
4.57176
4.54522
4.51722
4.48781
4.45706
4.42502
4.39176
4.35736
4.32186
4.28535
4.24787
4.20952
4.17034
4.1304
4.08978
4.04853
4.00673
3.96445
3.92174
3.87869
3.83537
3.79185
3.7482
3.70451
3.66087
3.61737
3.57414
3.5313
3.48901
3.44746
3.40683
3.36731
3.32901
3.29135
3.25315
0.0273195
0.0615098
0.0787699
0.0910147
0.101144
0.110173
0.118591
0.126687
0.134651
0.142613
0.150668
0.15889
0.167335
0.176045
0.185056
0.194394
0.204086
0.214152
0.224616
0.2355
0.24683
0.258629
0.270915
0.283711
0.297039
0.310927
0.325398
0.340478
0.356191
0.372562
0.389614
0.40737
0.425854
0.445089
0.465097
0.485901
0.507526
0.529997
0.553344
0.577594
0.602758
0.62885
0.655879
0.68388
0.712883
0.742917
0.774009
0.806182
0.839464
0.873877
0.909446
0.946193
0.984138
1.0233
1.0637
1.10534
1.14825
1.19244
1.23791
1.28468
1.33275
1.38212
1.43279
1.48475
1.538
1.59252
1.6483
1.70531
1.76352
1.82291
1.88345
1.94508
2.00778
2.07148
2.13614
2.2017
2.26811
2.3353
2.4032
2.47174
2.54085
2.61046
2.68048
2.75085
2.82146
2.89225
2.96311
3.03398
3.10475
3.17534
3.24565
3.3156
3.3851
3.45405
3.52236
3.58995
3.65672
3.72259
3.78747
3.85127
3.91393
3.97535
4.03546
4.09418
4.15145
4.20718
4.26131
4.31377
4.36449
4.41343
4.46051
4.50567
4.54888
4.59006
4.62919
4.66621
4.70109
4.7338
4.76429
4.79255
4.81855
4.84228
4.8637
4.88282
4.89963
4.91412
4.92629
4.93616
4.94374
4.94904
4.95209
4.95292
4.95168
4.9482
4.94247
4.93462
4.92469
4.91271
4.89872
4.88278
4.86494
4.84523
4.82371
4.80045
4.77549
4.7489
4.72074
4.69106
4.65994
4.62743
4.5936
4.55852
4.52225
4.48487
4.44643
4.40702
4.36669
4.32551
4.28356
4.2409
4.19759
4.15371
4.10933
4.06451
4.01933
3.97386
3.92817
3.88235
3.83648
3.79065
3.74497
3.69955
3.65452
3.61006
3.56633
3.52352
3.48181
3.44131
3.40149
3.36142
0.0275264
0.0618961
0.0791692
0.0914041
0.101504
0.110487
0.118847
0.126872
0.13475
0.142617
0.15058
0.158705
0.167045
0.175646
0.184542
0.193763
0.203334
0.213279
0.22362
0.234379
0.245576
0.257233
0.269375
0.282026
0.295211
0.308959
0.323297
0.338256
0.353862
0.370145
0.387134
0.404858
0.423347
0.442629
0.462735
0.483695
0.505537
0.528292
0.551977
0.576617
0.602248
0.628899
0.656584
0.685345
0.715222
0.746249
0.778453
0.811866
0.846516
0.882434
0.919645
0.958169
0.998028
1.03924
1.08181
1.12576
1.1711
1.21784
1.26598
1.31552
1.36648
1.41884
1.47259
1.52773
1.58424
1.64209
1.70127
1.76174
1.82346
1.88641
1.95052
2.01577
2.08209
2.14943
2.21772
2.28691
2.35693
2.42771
2.49917
2.57124
2.64384
2.71689
2.7903
2.86399
2.93788
3.01187
3.08587
3.1598
3.23355
3.30704
3.38018
3.45287
3.52501
3.59652
3.66731
3.73727
3.80633
3.87438
3.94136
4.00717
4.07173
4.13495
4.19677
4.2571
4.31588
4.37303
4.42848
4.48216
4.53401
4.58398
4.63199
4.678
4.72194
4.76378
4.80347
4.84096
4.87622
4.90921
4.9399
4.96828
4.9943
5.01797
5.03926
5.05816
5.07466
5.08877
5.1005
5.10985
5.11683
5.12146
5.12377
5.12383
5.12183
5.1174
5.11071
5.10184
5.09084
5.07774
5.0626
5.04545
5.02635
5.00535
4.98251
4.95788
4.93153
4.90351
4.87388
4.84271
4.81007
4.77601
4.74062
4.70394
4.66606
4.62704
4.58695
4.54586
4.50384
4.46095
4.41726
4.37285
4.32778
4.28212
4.23594
4.1893
4.14229
4.09496
4.04741
3.99971
3.95195
3.90421
3.85661
3.80927
3.76231
3.71591
3.67022
3.62545
3.58173
3.53922
3.49742
3.45567
0.0274762
0.0618422
0.0790486
0.0912228
0.101258
0.110167
0.118441
0.126368
0.134137
0.141882
0.149699
0.157663
0.16583
0.174248
0.182956
0.191985
0.201361
0.211108
0.22125
0.23181
0.24281
0.254275
0.266234
0.278715
0.291749
0.305365
0.319592
0.334464
0.350015
0.366279
0.383294
0.401096
0.41972
0.439199
0.459567
0.480861
0.503118
0.526384
0.550678
0.576025
0.602444
0.629957
0.658653
0.688562
0.719711
0.752134
0.785869
0.820953
0.857428
0.895334
0.934688
0.975509
1.01781
1.0616
1.10688
1.15366
1.20193
1.25171
1.30299
1.35577
1.41003
1.46576
1.52294
1.58156
1.64158
1.70298
1.76571
1.82973
1.89501
1.96149
2.02912
2.09784
2.16759
2.23831
2.30994
2.38239
2.4556
2.5295
2.604
2.67902
2.75449
2.83032
2.90642
2.9827
3.05909
3.13548
3.21178
3.28791
3.36378
3.43928
3.51432
3.58883
3.66269
3.73582
3.80813
3.87953
3.94992
4.01923
4.08737
4.15426
4.2198
4.28393
4.34657
4.40764
4.46707
4.52479
4.58074
4.63485
4.68706
4.7373
4.78552
4.83167
4.87569
4.91753
4.95715
4.99452
5.02959
5.06233
5.09272
5.12073
5.14634
5.16953
5.1903
5.20862
5.2245
5.23794
5.24895
5.25754
5.26372
5.2675
5.26892
5.26818
5.26524
5.2598
5.25211
5.24222
5.23016
5.21599
5.19975
5.18148
5.16124
5.13908
5.11506
5.08924
5.06168
5.03243
5.00157
4.96915
4.93524
4.89991
4.86323
4.82526
4.78607
4.74573
4.70431
4.66188
4.6185
4.57425
4.52918
4.48338
4.43691
4.38983
4.3422
4.29411
4.24562
4.19681
4.14774
4.09851
4.0492
3.9999
3.95071
3.90176
3.85319
3.80513
3.75777
3.71128
3.66582
3.62154
3.57799
3.53478
0.0273222
0.0615812
0.0786145
0.0906321
0.100505
0.109244
0.117339
0.125079
0.132655
0.140201
0.147816
0.155579
0.163552
0.17178
0.180296
0.189134
0.198319
0.207879
0.217838
0.228223
0.239062
0.250385
0.262221
0.274607
0.287578
0.301171
0.315422
0.330367
0.346048
0.362505
0.379783
0.397937
0.417009
0.437033
0.458048
0.48009
0.50318
0.52732
0.552598
0.579076
0.606817
0.635884
0.666307
0.698118
0.731347
0.766025
0.802183
0.839851
0.879052
0.919807
0.962164
1.00615
1.05176
1.09898
1.14779
1.19817
1.25013
1.30363
1.35867
1.41523
1.47328
1.5328
1.59375
1.65609
1.71979
1.7848
1.85108
1.91856
1.9872
2.05694
2.12772
2.19947
2.27213
2.34563
2.4199
2.49487
2.57047
2.64661
2.72322
2.80021
2.87752
2.95506
3.03274
3.11048
3.18819
3.26578
3.34318
3.42028
3.49701
3.57326
3.64897
3.72402
3.79835
3.87185
3.94444
4.01604
4.08656
4.15593
4.22404
4.29084
4.35623
4.42014
4.48251
4.54326
4.60231
4.65961
4.71509
4.76868
4.82033
4.86998
4.91757
4.96305
5.00637
5.04747
5.08634
5.12291
5.15717
5.18908
5.21861
5.24574
5.27045
5.29273
5.31257
5.32996
5.34488
5.35735
5.36739
5.375
5.38017
5.38294
5.38337
5.38178
5.37776
5.37131
5.36263
5.35175
5.33871
5.32355
5.30632
5.28707
5.26586
5.24273
5.21775
5.19097
5.16245
5.13225
5.10044
5.06709
5.03224
4.99598
4.95837
4.91947
4.87935
4.83808
4.79573
4.75236
4.70804
4.66284
4.61683
4.57006
4.52261
4.47453
4.42591
4.37679
4.32726
4.27737
4.22722
4.17688
4.12642
4.07595
4.02557
3.97539
3.92556
3.87621
3.82751
3.77963
3.73272
3.68696
3.64193
3.59757
0.0269974
0.061012
0.0777756
0.0895631
0.0992105
0.107725
0.115597
0.123119
0.130482
0.137821
0.145237
0.152805
0.160585
0.168622
0.176957
0.185622
0.19465
0.204073
0.213921
0.224226
0.235024
0.246349
0.258239
0.270737
0.283889
0.297753
0.312381
0.327809
0.344084
0.36125
0.379345
0.398382
0.418412
0.439529
0.461801
0.485288
0.510055
0.536183
0.563704
0.592669
0.623131
0.655139
0.688726