/*--------------------------------*- C++ -*----------------------------------*\
| =========                 |                                                 |
| \\      /  F ield         | OpenFOAM: The Open Source CFD Toolbox           |
|  \\    /   O peration     | Version:  5.x                                   |
|   \\  /    A nd           | Web:      www.OpenFOAM.org                      |
|    \\/     M anipulation  |                                                 |
\*---------------------------------------------------------------------------*/
FoamFile
{
    version     2.0;
    format      ascii;
    class       volScalarField;
    location    "500";
    object      nut;
}
// * * * * * * * * * * * * * * * * * * * * * * * * * * * * * * * * * * * * * //

dimensions      [0 2 -1 0 0 0 0];

internalField   nonuniform List<scalar> 
12225
(
4.00442e-05
3.79888e-05
3.61368e-05
3.41785e-05
3.25591e-05
3.12938e-05
3.04059e-05
2.99681e-05
2.99616e-05
3.04355e-05
3.08591e-05
3.15636e-05
3.26192e-05
3.34698e-05
3.46616e-05
3.53923e-05
3.70558e-05
3.72292e-05
0.000331356
0.000213904
0.000178103
0.000157098
0.000145632
0.000137445
0.000132629
0.000131615
0.000129788
0.000130437
0.000129571
0.000129928
0.00012923
0.000129102
0.00012857
0.000128063
0.000127586
0.000127417
0.000677044
0.00045438
0.000358471
0.000311588
0.000276598
0.00025187
0.000232325
0.000217
0.00020245
0.000191443
0.000181891
0.000174403
0.000168485
0.000162852
0.000159346
0.000154793
0.000152861
0.000149225
0.000810084
0.000703753
0.000585009
0.000511182
0.000459556
0.000421061
0.000389252
0.000363428
0.000340847
0.00032077
0.000303672
0.000286548
0.000274507
0.00026003
0.000251538
0.000239399
0.000233222
0.000223402
0.000843282
0.000818499
0.000756649
0.000695749
0.000644231
0.000601615
0.000566016
0.00053414
0.00050859
0.000482928
0.000463648
0.00044145
0.000426534
0.000407096
0.000395446
0.000378345
0.000369253
0.000354411
0.000851851
0.000844806
0.00082789
0.000802636
0.000771291
0.000739726
0.000711764
0.000683644
0.000660838
0.000636573
0.000618129
0.000596846
0.000581665
0.000562757
0.000550153
0.00053317
0.000522736
0.00050733
0.000852031
0.000851
0.00084712
0.000839848
0.000829115
0.000814745
0.000799575
0.000782299
0.000767151
0.000750079
0.000736056
0.000720062
0.000707513
0.000692706
0.0006817
0.000667924
0.000658532
0.000645446
0.000851901
0.000851397
0.00085072
0.000848304
0.000845
0.000838835
0.000831851
0.000823493
0.000814862
0.000804639
0.000795513
0.000785113
0.000776139
0.000765949
0.000757584
0.000747746
0.000740144
0.000730457
0.000851846
0.000851334
0.000851146
0.000850288
0.000849359
0.000847219
0.000844495
0.000840675
0.00083661
0.000831429
0.00082627
0.000820457
0.000814567
0.000808635
0.000802789
0.000796727
0.00079092
0.000784775
0.000851824
0.000851328
0.000851067
0.000850605
0.00085026
0.000849556
0.000848716
0.000847341
0.000845817
0.000843734
0.000841504
0.000838814
0.000836071
0.000832899
0.000829954
0.000826408
0.00082351
0.000819539
0.000851803
0.000851351
0.000851011
0.000850614
0.000850311
0.000849927
0.00084958
0.000849069
0.000848541
0.000847798
0.000847019
0.000845984
0.000844966
0.000843631
0.000842439
0.000840833
0.000839559
0.000837708
0.00085179
0.000851363
0.00085099
0.000850609
0.000850279
0.000849935
0.000849639
0.000849311
0.000849016
0.000848661
0.000848332
0.000847911
0.000847526
0.000847015
0.000846565
0.000845958
0.000845449
0.000844752
0.000851783
0.000851365
0.00085098
0.000850605
0.00085026
0.000849921
0.000849613
0.000849307
0.000849028
0.000848745
0.000848487
0.000848214
0.000847966
0.000847694
0.000847445
0.000847167
0.000846911
0.000846622
0.000851781
0.000851365
0.000850973
0.000850599
0.000850248
0.000849911
0.000849594
0.000849289
0.000849003
0.000848727
0.000848467
0.000848215
0.000847978
0.000847746
0.000847527
0.000847313
0.000847108
0.000846907
0.00085178
0.000851364
0.000850969
0.000850595
0.00085024
0.000849902
0.000849581
0.000849276
0.000848985
0.000848708
0.000848444
0.000848192
0.000847952
0.000847722
0.000847503
0.000847293
0.000847092
0.0008469
0.000851779
0.000851363
0.000850967
0.000850591
0.000850234
0.000849895
0.000849572
0.000849265
0.000848973
0.000848694
0.000848428
0.000848174
0.000847932
0.0008477
0.000847479
0.000847268
0.000847065
0.000846872
0.000851779
0.000851362
0.000850965
0.000850588
0.000850231
0.00084989
0.000849566
0.000849258
0.000848964
0.000848684
0.000848417
0.000848162
0.000847918
0.000847685
0.000847462
0.000847249
0.000847045
0.000846851
0.000851779
0.000851362
0.000850965
0.000850588
0.000850229
0.000849888
0.000849564
0.000849255
0.00084896
0.000848679
0.000848411
0.000848155
0.000847911
0.000847677
0.000847453
0.000847239
0.000847035
0.000846839
0.000851779
0.000851362
0.000850965
0.000850588
0.000850229
0.000849889
0.000849564
0.000849255
0.00084896
0.000848679
0.000848411
0.000848155
0.00084791
0.000847676
0.000847452
0.000847237
0.000847032
0.000846836
0.000851779
0.000851362
0.000850966
0.000850589
0.000850231
0.000849891
0.000849567
0.000849258
0.000848964
0.000848683
0.000848415
0.000848159
0.000847914
0.00084768
0.000847455
0.00084724
0.000847033
0.000846835
0.000851779
0.000851363
0.000850967
0.000850592
0.000850234
0.000849896
0.000849572
0.000849265
0.00084897
0.00084869
0.000848418
0.000848159
0.000847905
0.000847662
0.000847421
0.000847191
0.000846959
0.000846738
0.000851778
0.000851366
0.000850968
0.000850598
0.000850239
0.000849905
0.000849575
0.000849263
0.000848943
0.000848633
0.000848304
0.00084798
0.000847626
0.000847278
0.000846892
0.000846518
0.000846098
0.000845702
0.000851776
0.000851373
0.000850969
0.000850612
0.000850232
0.000849862
0.000849423
0.000848944
0.000848352
0.000847705
0.000846922
0.000846092
0.000845119
0.000844131
0.000842994
0.00084189
0.000840621
0.000839453
0.000851793
0.000851402
0.000850958
0.000850518
0.000849762
0.000848792
0.000847321
0.000845521
0.000843297
0.000840834
0.000837987
0.000835044
0.000831794
0.000828595
0.000825124
0.000821857
0.000818286
0.000815099
0.000852042
0.000851311
0.000850234
0.000848123
0.000844332
0.000839422
0.000832785
0.000825825
0.000818255
0.00081042
0.000802248
0.000794383
0.000786344
0.000778852
0.000771185
0.000764266
0.000757031
0.000750791
0.000853327
0.000847475
0.000841112
0.0008282
0.000811771
0.000793878
0.000775414
0.000757768
0.000740645
0.000724935
0.000709824
0.000696216
0.000683017
0.000671321
0.000659738
0.000649682
0.000639393
0.000630778
0.000851081
0.000822438
0.000784976
0.000739117
0.000700434
0.00066632
0.000636265
0.000610668
0.000587838
0.000568262
0.000550327
0.000534892
0.000520328
0.000507891
0.000495663
0.000485404
0.00047495
0.000466398
0.000812689
0.000686629
0.000594627
0.000534891
0.000491047
0.000456226
0.000428792
0.000407006
0.000388412
0.000373193
0.000359699
0.000348518
0.000338352
0.000329771
0.000321354
0.000314742
0.000307969
0.000302525
0.000528494
0.000373306
0.000314902
0.000279546
0.000255713
0.000238587
0.000227996
0.00021988
0.000213295
0.000209068
0.000205588
0.000203145
0.000200899
0.000199395
0.000197769
0.000196757
0.000195475
0.000194825
8.19351e-05
7.92805e-05
7.69043e-05
7.44666e-05
7.21368e-05
6.99292e-05
6.79688e-05
6.62975e-05
6.4854e-05
6.36673e-05
6.27109e-05
6.19582e-05
6.13981e-05
6.09813e-05
6.07263e-05
6.05547e-05
6.0526e-05
6.05642e-05
1.40197e-07
3.89815e-06
7.33994e-06
1.0349e-05
1.3118e-05
1.61977e-05
1.9786e-05
2.41403e-05
2.9454e-05
3.5778e-05
4.30178e-05
5.10043e-05
5.95449e-05
6.8465e-05
7.76157e-05
8.68754e-05
9.61501e-05
0.000105362
0.000114457
0.000123382
0.000132105
0.000140578
0.000148769
0.000156613
0.000164056
0.000170994
0.000177344
0.000182953
0.000187702
0.000191376
0.00019378
0.000194626
0.000193837
0.000190226
4.35911e-05
0.000222683
0.000224409
0.000222045
0.000219712
0.00021333
0.00021456
0.000206492
4.54628e-05
4.8872e-05
4.90063e-05
5.05591e-05
5.15735e-05
5.2721e-05
5.38421e-05
5.49516e-05
5.6068e-05
5.71733e-05
5.82792e-05
5.93792e-05
6.04763e-05
6.15696e-05
6.26591e-05
6.37452e-05
6.4827e-05
6.59055e-05
6.69794e-05
6.80497e-05
6.9115e-05
7.01762e-05
7.12319e-05
7.22829e-05
7.33278e-05
7.43672e-05
7.53998e-05
7.64261e-05
7.74446e-05
7.84559e-05
7.94586e-05
8.0453e-05
8.14378e-05
8.24132e-05
8.33779e-05
8.43321e-05
8.52747e-05
8.62056e-05
8.71237e-05
8.80289e-05
8.89203e-05
8.97976e-05
9.06598e-05
9.15068e-05
9.23375e-05
9.31515e-05
9.39479e-05
9.47261e-05
9.54852e-05
9.62242e-05
9.6942e-05
9.76375e-05
9.83096e-05
9.89576e-05
9.95812e-05
0.000100183
0.000100768
0.000101329
0.000101869
0.000102387
0.000102883
0.000103356
0.000103807
0.000104236
0.00010464
0.000105022
0.000105379
0.000105712
0.000106021
0.000106306
0.000106566
0.000106801
0.000107011
0.000107196
0.000107356
0.00010749
0.0001076
0.000107684
0.000107742
0.000107775
0.000107784
0.000107767
0.000107725
0.000107658
0.000107566
0.000107451
0.000107311
0.000107145
0.000106958
0.000106745
0.000106502
0.000106242
0.000105964
0.000105662
0.000105336
0.000104988
0.000104619
0.000104229
0.000103819
0.000103389
0.00010294
0.000102472
0.000101986
0.000101482
0.00010096
0.000100423
9.98692e-05
9.93003e-05
9.87168e-05
9.81193e-05
9.75084e-05
9.68849e-05
9.62494e-05
9.56027e-05
9.49454e-05
9.42782e-05
9.36019e-05
9.29174e-05
9.22255e-05
9.15276e-05
9.08264e-05
9.01333e-05
8.95498e-05
8.91336e-05
8.87389e-05
8.83441e-05
8.79477e-05
8.75493e-05
8.71494e-05
8.67477e-05
8.6344e-05
8.59371e-05
8.55248e-05
8.51017e-05
8.46574e-05
8.41624e-05
8.35501e-05
8.17342e-05
7.34733e-07
2.22466e-05
5.16003e-05
7.22724e-05
8.54369e-05
9.3999e-05
0.00010063
0.000107013
0.000114032
0.000122026
0.000131003
0.00014081
0.000151226
0.000162033
0.000173036
0.000184076
0.000195024
0.000205775
0.000216248
0.000226375
0.000236103
0.000245379
0.00025415
0.000262345
0.000269868
0.000276572
0.000282248
0.000286589
0.000289173
0.000289116
0.000285401
0.000277114
0.000264034
0.000246285
0.000224927
0.000304569
0.000293675
0.000286936
0.000280687
0.000274735
0.000282895
0.00026385
0.000251225
0.000262456
0.000267661
0.000275672
0.000283161
0.000291135
0.000299049
0.000307178
0.000315368
0.000323675
0.000332058
0.000340528
0.000349074
0.0003577
0.000366403
0.000375184
0.000384044
0.000392984
0.000402004
0.000411107
0.000420291
0.000429557
0.000438906
0.000448336
0.000457848
0.000467439
0.000477108
0.000486852
0.000496669
0.000506557
0.00051651
0.000526527
0.000536601
0.000546729
0.000556905
0.000567124
0.000577381
0.00058767
0.000597984
0.000608319
0.000618667
0.000629022
0.000639378
0.00064973
0.00066007
0.000670395
0.000680697
0.000690972
0.000701213
0.000711412
0.000721559
0.000731633
0.000741603
0.000751416
0.000760975
0.000770114
0.000778544
0.000786827
0.000794977
0.000802996
0.000810878
0.000818619
0.000826213
0.000833654
0.000840938
0.000848058
0.00085501
0.000861787
0.000868386
0.000874801
0.000881027
0.00088706
0.000892896
0.000898531
0.00090396
0.00090918
0.000914188
0.000918981
0.000923554
0.000927907
0.000932036
0.000935939
0.000939615
0.000943063
0.000946283
0.000949275
0.000952041
0.000954578
0.000956922
0.000959072
0.000960757
0.000962225
0.000963634
0.000964851
0.000965775
0.000966465
0.00096693
0.000967171
0.000967193
0.000966998
0.00096659
0.000965972
0.000965148
0.000964122
0.000962899
0.000961483
0.000959878
0.000958091
0.000956127
0.00095399
0.000951688
0.000949225
0.000946609
0.000943846
0.000940941
0.000937902
0.000934734
0.000931443
0.000928031
0.000924495
0.000920804
0.000916787
0.000911588
0.000904713
0.000897281
0.000889653
0.00088193
0.000874145
0.000866314
0.000858442
0.000850531
0.000842572
0.000834542
0.000826391
0.000817964
0.000808995
0.000798042
0.000770021
1.59167e-06
3.77054e-05
8.32938e-05
0.000117937
0.00014296
0.000161046
0.000174702
0.000185965
0.000196279
0.000206527
0.000217143
0.00022826
0.000239828
0.000251719
0.000263779
0.000275859
0.000287829
0.00029958
0.000311027
0.000322105
0.000332765
0.000342973
0.000352702
0.000361923
0.000370593
0.000378651
0.000386001
0.000392505
0.000397959
0.000402482
0.000406241
0.000409316
0.000411432
0.000412508
0.00041242
0.000434603
0.000440758
0.00044785
0.000456178
0.000466283
0.000484503
0.000495251
0.000506632
0.000522785
0.000538056
0.000554018
0.000570069
0.000586396
0.000602852
0.000619491
0.000636269
0.000653195
0.000670258
0.00068746
0.000704796
0.00072227
0.000739881
0.000757632
0.000775523
0.000793555
0.00081173
0.000830046
0.000848504
0.000867103
0.00088584
0.000904714
0.00092372
0.000942855
0.000962115
0.000981493
0.00100098
0.00102058
0.00104027
0.00106005
0.00107991
0.00109984
0.00111983
0.00113987
0.00115995
0.00118006
0.00120018
0.0012203
0.00124041
0.0012605
0.00128056
0.00130057
0.00132051
0.00134038
0.00136016
0.00137983
0.00139938
0.00141877
0.001438
0.001457
0.00147575
0.00149416
0.00151217
0.0015297
0.00154676
0.00156357
0.00158011
0.00159638
0.00161235
0.00162803
0.0016434
0.00165845
0.00167316
0.00168753
0.00170154
0.00171519
0.00172846
0.00174135
0.00175384
0.00176592
0.0017776
0.00178885
0.00179967
0.00181006
0.00182001
0.00182951
0.00183855
0.00184713
0.00185525
0.0018629
0.00187008
0.00187679
0.00188302
0.00188879
0.00189409
0.00189892
0.0019033
0.0019073
0.00191047
0.00191313
0.00191562
0.00191765
0.00191915
0.00192017
0.00192072
0.00192081
0.00192045
0.00191965
0.0019184
0.00191672
0.00191462
0.00191211
0.00190918
0.00190586
0.00190216
0.00189807
0.00189362
0.00188882
0.00188367
0.0018782
0.0018724
0.00186631
0.00185992
0.00185325
0.00184632
0.00183913
0.00183169
0.001824
0.00181602
0.00180752
0.0017978
0.00178645
0.00177424
0.00176162
0.00174874
0.00173569
0.00172251
0.00170922
0.00169582
0.0016823
0.00166862
0.00165466
0.00164014
0.00162433
0.00160448
0.00156246
2.60196e-06
5.00198e-05
0.000108067
0.000153196
0.000186343
0.000210839
0.000229594
0.000244887
0.00025837
0.000271124
0.000283771
0.000296595
0.000309665
0.000322931
0.000336287
0.000349613
0.000362799
0.000375753
0.000388409
0.000400728
0.000412695
0.000424322
0.000435637
0.000446683
0.000457507
0.000468156
0.000478679
0.000489134
0.000499609
0.000510242
0.000521172
0.000532574
0.000544615
0.000557453
0.000571059
0.000589447
0.000606247
0.000623517
0.00064179
0.000661214
0.000683321
0.000704926
0.000726338
0.000748766
0.000771285
0.000794039
0.000816971
0.000840109
0.00086343
0.000886939
0.000910629
0.000934499
0.000958549
0.000982777
0.00100719
0.00103177
0.00105655
0.00108151
0.00110666
0.00113199
0.00115751
0.00118322
0.00120912
0.00123519
0.00126144
0.00128786
0.00131445
0.0013412
0.0013681
0.00139514
0.00142232
0.00144961
0.00147702
0.00150453
0.00153212
0.00155979
0.00158751
0.00161528
0.00164307
0.00167087
0.00169867
0.00172644
0.00175417
0.00178184
0.00180944
0.00183694
0.00186432
0.00189157
0.00191866
0.00194556
0.00197225
0.00199871
0.00202489
0.00205077
0.00207629
0.00210141
0.00212607
0.00215026
0.00217403
0.00219745
0.00222049
0.00224315
0.00226541
0.00228725
0.00230866
0.00232961
0.00235011
0.00237012
0.00238964
0.00240865
0.00242715
0.0024451
0.00246251
0.00247936
0.00249564
0.00251134
0.00252644
0.00254095
0.00255484
0.00256811
0.00258075
0.00259276
0.00260413
0.00261485
0.00262493
0.00263435
0.00264311
0.00265123
0.0026587
0.00266553
0.00267183
0.00267739
0.00268195
0.00268584
0.00268947
0.00269238
0.0026946
0.00269616
0.00269708
0.00269736
0.002697
0.00269603
0.00269446
0.00269227
0.0026895
0.00268616
0.00268224
0.00267777
0.00267275
0.00266721
0.00266116
0.00265461
0.00264758
0.00264008
0.00263213
0.00262375
0.00261495
0.00260576
0.00259619
0.00258626
0.00257598
0.00256534
0.0025543
0.00254269
0.00253007
0.00251616
0.00250136
0.00248601
0.0024703
0.00245432
0.00243813
0.00242176
0.00240524
0.00238855
0.00237167
0.00235446
0.00233664
0.00231722
0.00229299
0.00224868
3.64064e-06
6.03502e-05
0.000128905
0.000182842
0.000223117
0.000253237
0.00027644
0.000295248
0.000311503
0.000326459
0.000340895
0.000355231
0.00036965
0.000384183
0.000398786
0.000413384
0.0004279
0.000442273
0.000456468
0.000470478
0.000484329
0.000498079
0.000511808
0.00052562
0.000539627
0.000553947
0.000568694
0.000583975
0.000599892
0.000616537
0.000633993
0.000652348
0.000671699
0.00069213
0.00071362
0.00073666
0.000760109
0.00078421
0.000809071
0.000834488
0.000860973
0.000887852
0.000915035
0.000942637
0.000970431
0.000998434
0.00102664
0.00105506
0.00108368
0.00111252
0.00114156
0.00117082
0.00120028
0.00122996
0.00125984
0.00128992
0.00132022
0.00135073
0.00138147
0.00141241
0.00144357
0.00147494
0.00150652
0.00153829
0.00157026
0.00160241
0.00163474
0.00166724
0.00169989
0.00173269
0.00176563
0.00179868
0.00183184
0.00186508
0.0018984
0.00193177
0.00196519
0.00199862
0.00203205
0.00206547
0.00209884
0.00213216
0.0021654
0.00219854
0.00223155
0.00226442
0.00229713
0.00232964
0.00236193
0.00239398
0.00242575
0.00245723
0.00248837
0.00251916
0.00254955
0.00257952
0.00260908
0.00263819
0.00266687
0.00269511
0.00272292
0.00275026
0.00277713
0.0028035
0.00282936
0.00285468
0.00287945
0.00290366
0.00292728
0.0029503
0.00297271
0.00299448
0.00301561
0.00303609
0.00305588
0.003075
0.00309341
0.00311112
0.0031281
0.00314436
0.00315988
0.00317464
0.00318866
0.00320191
0.00321439
0.00322611
0.00323705
0.00324722
0.00325663
0.00326534
0.00327341
0.00328042
0.00328643
0.00329176
0.00329659
0.00330059
0.00330379
0.0033062
0.00330785
0.00330874
0.00330889
0.00330829
0.00330697
0.00330492
0.00330217
0.00329873
0.0032946
0.0032898
0.00328436
0.00327827
0.00327156
0.00326424
0.00325634
0.00324787
0.00323885
0.0032293
0.00321924
0.00320869
0.00319767
0.0031862
0.00317429
0.00316195
0.00314915
0.00313577
0.00312157
0.00310637
0.00309035
0.00307374
0.00305669
0.00303931
0.00302165
0.00300377
0.00298569
0.00296743
0.00294896
0.00293016
0.0029107
0.0028896
0.00286374
0.0028219
4.64355e-06
6.90939e-05
0.000146545
0.00020808
0.000254749
0.000289999
0.000317296
0.000339353
0.000358176
0.000375177
0.000391276
0.000407028
0.000422724
0.000438489
0.000454348
0.000470279
0.000486248
0.000502229
0.000518215
0.000534228
0.00055032
0.000566571
0.000583085
0.000599984
0.000617396
0.00063545
0.00065426
0.000673921
0.000694507
0.00071606
0.000738598
0.000762123
0.00078663
0.000812115
0.000838547
0.000865919
0.000893954
0.000922615
0.000951873
0.000981655
0.00101205
0.00104292
0.00107416
0.00110574
0.00113758
0.00116966
0.00120198
0.00123451
0.00126727
0.00130025
0.00133345
0.00136687
0.00140052
0.00143439
0.00146849
0.00150283
0.00153739
0.00157216
0.00160715
0.00164236
0.00167777
0.00171338
0.00174919
0.00178518
0.00182137
0.00185772
0.00189424
0.00193091
0.00196773
0.00200467
0.00204173
0.00207889
0.00211613
0.00215345
0.00219082
0.00222822
0.00226564
0.00230306
0.00234045
0.0023778
0.0024151
0.0024523
0.00248941
0.00252638
0.00256321
0.00259986
0.00263632
0.00267256
0.00270855
0.00274426
0.00277968
0.00281478
0.00284952
0.00288389
0.00291786
0.0029514
0.00298451
0.00301717
0.00304937
0.0030811
0.00311234
0.00314308
0.0031733
0.00320297
0.00323209
0.00326062
0.00328855
0.00331586
0.00334253
0.00336855
0.0033939
0.00341856
0.00344252
0.00346576
0.00348826
0.00351002
0.00353102
0.00355124
0.00357068
0.00358932
0.00360715
0.00362417
0.00364036
0.00365572
0.00367024
0.00368391
0.00369674
0.00370872
0.00371987
0.00373036
0.00373989
0.00374842
0.00375585
0.00376265
0.00376874
0.00377393
0.00377826
0.00378172
0.00378434
0.00378612
0.00378707
0.0037872
0.00378652
0.00378505
0.00378279
0.00377975
0.00377595
0.00377141
0.00376613
0.00376013
0.00375344
0.00374606
0.00373802
0.00372933
0.00372002
0.00371011
0.00369961
0.00368855
0.00367695
0.00366483
0.00365221
0.00363909
0.00362547
0.00361128
0.00359637
0.00358067
0.00356423
0.0035472
0.0035297
0.00351181
0.00349362
0.00347516
0.00345649
0.00343763
0.00341858
0.00339926
0.00337937
0.00335802
0.00333247
0.00329476
5.57038e-06
7.6365e-05
0.000161262
0.000229399
0.000281827
0.00032182
0.000352976
0.00037814
0.000399452
0.000418451
0.00043619
0.000453344
0.000470316
0.000487321
0.000504458
0.000521764
0.000539248
0.000556917
0.000574788
0.000592899
0.000611311
0.000630108
0.000649391
0.00066927
0.000689858
0.00071126
0.000733567
0.000756846
0.000781138
0.000806454
0.000832778
0.000860074
0.000888292
0.000917383
0.0009473
0.000977986
0.00100934
0.00104129
0.0010738
0.00110679
0.00114026
0.00117415
0.00120842
0.00124302
0.00127791
0.00131307
0.00134846
0.00138409
0.00141994
0.00145602
0.00149231
0.00152883
0.00156556
0.00160251
0.00163968
0.00167706
0.00171466
0.00175246
0.00179047
0.00182867
0.00186707
0.00190566
0.00194443
0.00198337
0.00202248
0.00206175
0.00210117
0.00214073
0.00218041
0.00222021
0.0022601
0.00230009
0.00234014
0.00238025
0.00242039
0.00246056
0.00250073
0.00254089
0.00258101
0.00262107
0.00266106
0.00270096
0.00274073
0.00278037
0.00281985
0.00285914
0.00289823
0.00293708
0.00297568
0.003014
0.00305202
0.0030897
0.00312703
0.00316399
0.00320054
0.00323668
0.00327238
0.00330762
0.0033424
0.00337669
0.00341047
0.00344374
0.00347645
0.00350861
0.00354017
0.00357113
0.00360147
0.00363116
0.00366019
0.00368854
0.00371618
0.00374311
0.00376931
0.00379475
0.00381942
0.00384332
0.00386641
0.0038887
0.00391016
0.00393079
0.00395057
0.0039695
0.00398756
0.00400474
0.00402103
0.00403644
0.00405095
0.00406456
0.00407737
0.00408943
0.00410036
0.00411036
0.00411923
0.00412749
0.00413487
0.00414132
0.00414685
0.00415148
0.00415521
0.00415805
0.00416001
0.0041611
0.00416132
0.00416069
0.00415923
0.00415693
0.00415382
0.0041499
0.0041452
0.00413972
0.00413349
0.00412652
0.00411884
0.00411045
0.00410138
0.00409164
0.00408128
0.00407029
0.00405871
0.00404655
0.00403384
0.00402059
0.0040068
0.00399244
0.00397743
0.00396174
0.00394539
0.00392845
0.00391103
0.0038932
0.00387503
0.00385659
0.00383792
0.00381908
0.00380008
0.0037809
0.00376129
0.0037405
0.00371623
0.00368266
6.39239e-06
8.22586e-05
0.000173277
0.000247103
0.000304688
0.000349065
0.000383877
0.00041205
0.000435818
0.000456822
0.000476225
0.000494811
0.000513082
0.000531342
0.000549763
0.000568439
0.000587422
0.000606746
0.000626444
0.000646558
0.00066715
0.000688295
0.000710084
0.000732609
0.00075594
0.000780151
0.000805304
0.000831438
0.000858572
0.000886699
0.000915791
0.000945802
0.000976673
0.00100835
0.00104076
0.00107387
0.0011076
0.00114189
0.0011767
0.00121196
0.00124766
0.00128374
0.00132018
0.00135695
0.00139402
0.00143136
0.00146895
0.00150677
0.00154481
0.00158305
0.0016215
0.00166014
0.00169899
0.00173804
0.00177728
0.00181671
0.00185634
0.00189614
0.00193613
0.0019763
0.00201664
0.00205715
0.00209783
0.00213866
0.00217964
0.00222076
0.00226202
0.0023034
0.00234489
0.00238649
0.00242817
0.00246994
0.00251177
0.00255365
0.00259556
0.0026375
0.00267943
0.00272135
0.00276324
0.00280508
0.00284684
0.00288852
0.00293008
0.00297152
0.0030128
0.0030539
0.00309481
0.00313549
0.00317594
0.00321611
0.00325599
0.00329556
0.00333478
0.00337365
0.00341213
0.00345021
0.00348786
0.00352506
0.0035618
0.00359806
0.00363381
0.00366903
0.0037037
0.00373781
0.00377133
0.00380423
0.0038365
0.00386812
0.00389907
0.00392932
0.00395886
0.00398767
0.00401573
0.00404303
0.00406954
0.00409525
0.00412015
0.00414422
0.00416745
0.00418982
0.00421132
0.00423194
0.00425166
0.00427049
0.00428841
0.00430541
0.00432148
0.00433663
0.00435103
0.00436444
0.00437684
0.00438825
0.00439862
0.00440827
0.00441697
0.00442472
0.00443152
0.00443739
0.00444233
0.00444634
0.00444944
0.00445163
0.00445292
0.00445333
0.00445286
0.00445152
0.00444933
0.0044463
0.00444244
0.00443777
0.0044323
0.00442606
0.00441905
0.00441131
0.00440284
0.00439366
0.00438381
0.00437329
0.00436214
0.00435037
0.004338
0.00432506
0.00431154
0.00429745
0.00428275
0.00426741
0.00425147
0.00423496
0.00421796
0.00420054
0.00418276
0.00416469
0.00414641
0.00412796
0.00410941
0.00409076
0.00407184
0.00405202
0.00402949
0.00400018
7.09169e-06
8.68744e-05
0.00018279
0.000261441
0.000323593
0.00037199
0.000410253
0.000441336
0.00046753
0.000490553
0.000511653
0.000531706
0.0005513
0.000570821
0.000590504
0.000610496
0.000630903
0.000651795
0.00067318
0.000695097
0.000717588
0.0007407
0.000764469
0.000788962
0.000814303
0.000840557
0.000867761
0.000895936
0.000925083
0.000955184
0.000986208
0.00101811
0.00105082
0.0010843
0.00111849
0.00115332
0.00118874
0.00122471
0.00126118
0.00129809
0.0013354
0.00137305
0.00141099
0.00144915
0.00148758
0.00152629
0.00156526
0.00160444
0.00164381
0.00168336
0.00172308
0.00176298
0.00180305
0.00184328
0.00188368
0.00192425
0.00196497
0.00200586
0.00204691
0.00208811
0.00212946
0.00217096
0.00221262
0.00225441
0.00229635
0.00233841
0.00238061
0.00242293
0.00246536
0.00250789
0.00255052
0.00259324
0.00263603
0.00267889
0.00272179
0.00276473
0.00280769
0.00285066
0.00289362
0.00293655
0.00297943
0.00302225
0.00306498
0.00310761
0.00315012
0.00319248
0.00323466
0.00327666
0.00331844
0.00335999
0.00340127
0.00344226
0.00348294
0.00352329
0.00356328
0.00360289
0.0036421
0.00368088
0.00371921
0.00375708
0.00379444
0.00383129
0.00386761
0.00390336
0.00393852
0.00397308
0.00400701
0.00404029
0.0040729
0.00410482
0.00413602
0.00416649
0.00419621
0.00422515
0.00425331
0.00428066
0.00430719
0.00433289
0.00435773
0.0043817
0.00440479
0.00442699
0.00444828
0.00446866
0.00448811
0.00450662
0.00452419
0.00454086
0.00455669
0.00457148
0.00458533
0.00459816
0.00461004
0.00462107
0.00463113
0.00464021
0.00464833
0.0046555
0.00466171
0.00466698
0.00467131
0.00467472
0.0046772
0.00467877
0.00467944
0.00467921
0.00467811
0.00467614
0.00467331
0.00466965
0.00466516
0.00465986
0.00465377
0.00464691
0.00463929
0.00463094
0.00462187
0.00461211
0.00460167
0.00459058
0.00457886
0.00456653
0.0045536
0.00454008
0.00452596
0.00451124
0.00449594
0.00448008
0.00446373
0.00444694
0.00442979
0.00441235
0.00439468
0.00437688
0.00435901
0.00434111
0.00432309
0.00430446
0.00428378
0.00425875
7.65887e-06
9.03187e-05
0.000190004
0.000272664
0.000338789
0.000390829
0.000432315
0.000466186
0.000494756
0.000519793
0.000542607
0.000564142
0.000585071
0.000605869
0.000626765
0.000647908
0.000669367
0.00069121
0.000713625
0.000736689
0.00076045
0.000784957
0.00081027
0.000836442
0.000863505
0.000891475
0.000920352
0.000950133
0.000980809
0.00101236
0.00104474
0.00107793
0.00111186
0.00114648
0.00118174
0.00121759
0.00125397
0.00129084
0.00132814
0.00136584
0.00140389
0.00144227
0.00148096
0.00151996
0.0015592
0.00159861
0.0016382
0.00167795
0.00171784
0.00175786
0.00179801
0.00183829
0.00187871
0.00191926
0.00195995
0.00200077
0.00204172
0.00208282
0.00212406
0.00216543
0.00220695
0.00224861
0.00229042
0.00233237
0.00237447
0.0024167
0.00245909
0.0025016
0.00254426
0.00258704
0.00262995
0.00267297
0.0027161
0.00275933
0.00280265
0.00284605
0.0028895
0.00293301
0.00297655
0.00302012
0.00306368
0.00310722
0.00315073
0.00319417
0.00323754
0.00328081
0.00332396
0.00336696
0.00340978
0.00345241
0.00349482
0.00353699
0.00357888
0.00362047
0.00366174
0.00370267
0.00374321
0.00378336
0.00382309
0.00386236
0.00390116
0.00393947
0.00397725
0.00401448
0.00405114
0.00408721
0.00412266
0.00415746
0.0041916
0.00422506
0.0042578
0.00428982
0.00432109
0.00435158
0.00438129
0.00441019
0.00443827
0.00446551
0.00449189
0.00451739
0.00454201
0.00456574
0.00458855
0.00461043
0.00463138
0.00465139
0.00467043
0.00468859
0.00470579
0.00472201
0.0047373
0.00475159
0.00476496
0.00477743
0.00478887
0.00479933
0.00480882
0.00481733
0.00482489
0.00483149
0.00483714
0.00484184
0.00484561
0.00484845
0.00485036
0.00485138
0.00485149
0.00485072
0.00484907
0.00484656
0.00484321
0.00483903
0.00483404
0.00482824
0.00482167
0.00481433
0.00480626
0.00479746
0.00478796
0.00477778
0.00476693
0.00475545
0.00474334
0.00473062
0.00471731
0.00470339
0.0046889
0.00467386
0.00465832
0.00464235
0.00462599
0.00460933
0.00459245
0.00457544
0.0045584
0.0045414
0.00452439
0.00450698
0.0044881
0.00446651
8.09174e-06
9.27004e-05
0.000195111
0.000281121
0.000350523
0.00040582
0.000450277
0.000486782
0.000517642
0.000544655
0.000569192
0.00059216
0.000614199
0.000635693
0.000657184
0.000678975
0.000701271
0.000724236
0.000747898
0.000772261
0.000797354
0.000823211
0.000849864
0.000877328
0.000905589
0.000934657
0.000964551
0.000995268
0.0010268
0.00105911
0.00109217
0.00112595
0.00116039
0.00119545
0.00123108
0.00126723
0.00130385
0.00134089
0.00137831
0.00141606
0.00145412
0.00149245
0.00153102
0.00156983
0.00160881
0.00164804
0.00168749
0.00172704
0.00176662
0.00180625
0.00184596
0.00188575
0.00192565
0.00196564
0.00200575
0.00204597
0.00208632
0.0021268
0.00216741
0.00220817
0.00224909
0.00229016
0.0023314
0.00237281
0.0024144
0.00245617
0.00249812
0.00254026
0.00258259
0.0026251
0.00266779
0.00271065
0.00275369
0.00279689
0.00284024
0.00288374
0.00292736
0.00297111
0.00301495
0.00305888
0.00310288
0.00314692
0.00319099
0.00323507
0.00327913
0.00332315
0.0033671
0.00341096
0.0034547
0.00349829
0.00354172
0.00358494
0.00362794
0.00367068
0.00371314
0.00375528
0.00379709
0.00383852
0.00387956
0.00392017
0.00396033
0.00400002
0.0040392
0.00407785
0.00411595
0.00415346
0.00419037
0.00422665
0.00426227
0.00429722
0.00433146
0.00436498
0.00439776
0.00442977
0.00446099
0.00449141
0.004521
0.00454975
0.00457765
0.00460467
0.00463081
0.00465604
0.00468036
0.00470375
0.0047262
0.00474769
0.00476823
0.00478783
0.00480645
0.00482414
0.00484089
0.00485667
0.00487153
0.00488552
0.00489838
0.00491026
0.00492117
0.0049311
0.00494007
0.00494807
0.00495511
0.0049612
0.00496634
0.00497054
0.00497382
0.00497617
0.00497762
0.00497816
0.00497782
0.00497661
0.00497454
0.00497161
0.00496786
0.00496329
0.00495793
0.00495178
0.00494486
0.0049372
0.00492882
0.00491973
0.00490995
0.0048995
0.00488841
0.00487668
0.00486434
0.00485139
0.00483787
0.0048238
0.00480921
0.00479418
0.00477875
0.00476301
0.00474704
0.00473095
0.00471484
0.0046988
0.00468284
0.00466667
0.00464945
0.0046307
8.39468e-06
9.41515e-05
0.000198361
0.000286974
0.000359088
0.000417226
0.00046437
0.000503339
0.000536319
0.000564994
0.000590609
0.000614416
0.000637274
0.000659868
0.000682532
0.000705472
0.000728857
0.000752775
0.000777268
0.000802418
0.000828266
0.000854833
0.000882146
0.000910212
0.000939027
0.000968587
0.000998888
0.00102992
0.00106166
0.00109408
0.00112715
0.00116083
0.00119507
0.00122985
0.0012651
0.0013008
0.00133688