/*--------------------------------*- C++ -*----------------------------------*\
| =========                 |                                                 |
| \\      /  F ield         | OpenFOAM: The Open Source CFD Toolbox           |
|  \\    /   O peration     | Version:  5.x                                   |
|   \\  /    A nd           | Web:      www.OpenFOAM.org                      |
|    \\/     M anipulation  |                                                 |
\*---------------------------------------------------------------------------*/
FoamFile
{
    version     2.0;
    format      ascii;
    class       volScalarField;
    location    "500";
    object      p;
}
// * * * * * * * * * * * * * * * * * * * * * * * * * * * * * * * * * * * * * //

dimensions      [0 2 -2 0 0 0 0];

internalField   nonuniform List<scalar> 
12225
(
-1.33381
-3.5988
-4.7168
-5.03143
-5.20999
-5.37923
-5.51123
-5.60671
-5.68344
-5.7513
-5.81199
-5.86791
-5.91966
-5.96902
-6.01708
-6.06079
-6.11616
-6.10782
-4.55645
-5.3631
-5.52078
-5.41805
-5.40258
-5.47108
-5.54956
-5.61597
-5.6762
-5.73423
-5.78972
-5.84199
-5.89187
-5.93999
-5.98756
-6.03222
-6.08429
-6.13039
-4.97136
-4.94823
-5.07204
-5.15537
-5.25633
-5.38085
-5.49106
-5.57793
-5.65117
-5.71762
-5.77897
-5.83546
-5.88864
-5.93922
-5.98883
-6.03598
-6.08933
-6.13714
-4.84851
-4.78163
-5.02837
-5.1977
-5.30328
-5.40989
-5.50822
-5.58903
-5.65834
-5.72195
-5.78131
-5.83652
-5.88877
-5.93866
-5.98758
-6.035
-6.08538
-6.13304
-4.84188
-4.86463
-5.0944
-5.24228
-5.32643
-5.41718
-5.50872
-5.58733
-5.65555
-5.71836
-5.77727
-5.83239
-5.88464
-5.93466
-5.98355
-6.03126
-6.07994
-6.12772
-4.90685
-4.95617
-5.12569
-5.25225
-5.3348
-5.42185
-5.51019
-5.58752
-5.65507
-5.71725
-5.77566
-5.83051
-5.88251
-5.93233
-5.9808
-6.0281
-6.07531
-6.12182
-4.97496
-5.01832
-5.14547
-5.26225
-5.34747
-5.4308
-5.51422
-5.58908
-5.65543
-5.71668
-5.77432
-5.82864
-5.88019
-5.92957
-5.97742
-6.02399
-6.06978
-6.11453
-5.02728
-5.06379
-5.16876
-5.27654
-5.36025
-5.43924
-5.51808
-5.59052
-5.65568
-5.71601
-5.77288
-5.82661
-5.87766
-5.92653
-5.97373
-6.01949
-6.06408
-6.10728
-5.07099
-5.10357
-5.19279
-5.2908
-5.37155
-5.44692
-5.52193
-5.59211
-5.65604
-5.71544
-5.77151
-5.82462
-5.87512
-5.92344
-5.96997
-6.01491
-6.05842
-6.10028
-5.11648
-5.14558
-5.22019
-5.30741
-5.3842
-5.45588
-5.52688
-5.59437
-5.65673
-5.71493
-5.76999
-5.82227
-5.87204
-5.91962
-5.96532
-6.00927
-6.05158
-6.09201
-5.16311
-5.18853
-5.25034
-5.32678
-5.39861
-5.46631
-5.53311
-5.59749
-5.65787
-5.71459
-5.76839
-5.8196
-5.86841
-5.91504
-5.95971
-6.00252
-6.04352
-6.08249
-5.20991
-5.23162
-5.2827
-5.34885
-5.41479
-5.47811
-5.54062
-5.60156
-5.65957
-5.7145
-5.76677
-5.81665
-5.86426
-5.90973
-5.9532
-5.99471
-6.0343
-6.0718
-5.25578
-5.27406
-5.31629
-5.373
-5.4325
-5.49111
-5.54929
-5.60658
-5.66185
-5.71467
-5.76515
-5.81345
-5.85962
-5.90372
-5.94581
-5.98591
-6.02404
-6.06007
-5.2994
-5.31469
-5.34974
-5.39817
-5.45118
-5.50489
-5.55877
-5.61231
-5.66459
-5.71502
-5.76348
-5.80997
-5.8545
-5.89705
-5.93763
-5.97624
-6.01289
-6.04749
-5.33913
-5.35194
-5.38131
-5.4228
-5.46979
-5.51868
-5.5684
-5.61827
-5.66747
-5.71534
-5.76161
-5.80615
-5.84889
-5.88977
-5.92876
-5.96584
-6.00103
-6.03426
-5.37278
-5.38369
-5.40875
-5.44479
-5.48666
-5.53121
-5.57713
-5.62362
-5.66986
-5.7152
-5.75925
-5.80179
-5.84271
-5.8819
-5.9193
-5.9549
-5.98868
-6.02063
-5.39737
-5.40695
-5.42906
-5.46126
-5.49932
-5.54047
-5.58334
-5.62704
-5.67076
-5.71386
-5.75589
-5.7966
-5.83581
-5.87342
-5.90935
-5.94358
-5.97609
-6.0069
-5.40781
-5.41676
-5.43752
-5.46794
-5.50415
-5.54353
-5.58471
-5.62677
-5.66893
-5.71055
-5.75119
-5.79056
-5.82851
-5.86491
-5.89971
-5.93287
-5.9644
-5.99431
-5.40314
-5.41216
-5.43311
-5.46384
-5.50035
-5.53982
-5.58086
-5.62265
-5.66443
-5.70557
-5.74563
-5.78437
-5.82165
-5.85738
-5.8915
-5.924
-5.9549
-5.98423
-5.38725
-5.39681
-5.4191
-5.45187
-5.49045
-5.53148
-5.5736
-5.61616
-5.65848
-5.69988
-5.74
-5.77865
-5.81573
-5.85118
-5.88498
-5.91714
-5.94769
-5.97668
-5.36322
-5.37352
-5.39814
-5.43464
-5.47676
-5.52034
-5.56438
-5.60854
-5.65204
-5.69419
-5.73474
-5.77361
-5.81078
-5.8462
-5.8799
-5.9119
-5.94227
-5.97107
-5.33331
-5.34401
-5.3719
-5.4143
-5.46132
-5.50786
-5.55425
-5.60058
-5.64573
-5.68893
-5.73014
-5.76943
-5.80684
-5.84236
-5.87606
-5.908
-5.93827
-5.96696
-5.29957
-5.30942
-5.34129
-5.3922
-5.44545
-5.49535
-5.54445
-5.5932
-5.64003
-5.68431
-5.72626
-5.76609
-5.80383
-5.83952
-5.87327
-5.90522
-5.93545
-5.96409
-5.26347
-5.27098
-5.30886
-5.36966
-5.42844
-5.48222
-5.53543
-5.58719
-5.63559
-5.68072
-5.72331
-5.7636
-5.80158
-5.83738
-5.87116
-5.90309
-5.93328
-5.96185
-5.22485
-5.22473
-5.28055
-5.35397
-5.41272
-5.46783
-5.52575
-5.58132
-5.63161
-5.6778
-5.72118
-5.76199
-5.80025
-5.83616
-5.86995
-5.90185
-5.932
-5.96058
-5.18985
-5.14849
-5.24467
-5.3475
-5.40715
-5.4602
-5.51942
-5.57636
-5.62728
-5.67402
-5.71798
-5.75923
-5.79776
-5.83383
-5.86772
-5.89967
-5.92986
-5.95845
-5.20689
-5.05062
-5.1628
-5.30416
-5.38848
-5.45604
-5.5218
-5.58034
-5.63124
-5.6778
-5.72152
-5.76242
-5.80051
-5.83615
-5.86963
-5.9012
-5.93109
-5.95955
-5.32582
-5.14438
-5.15211
-5.2191
-5.30043
-5.39226
-5.47749
-5.54771
-5.60679
-5.6597
-5.70813
-5.75236
-5.79284
-5.83021
-5.86496
-5.89746
-5.92818
-5.95773
-5.0601
-5.5938
-5.67684
-5.56355
-5.51051
-5.53333
-5.57644
-5.61685
-5.65594
-5.69592
-5.73559
-5.77347
-5.80921
-5.84291
-5.87469
-5.90457
-5.9328
-5.96143
-2.17701
-3.80811
-4.77281
-5.07497
-5.22423
-5.36447
-5.47649
-5.55617
-5.61881
-5.67408
-5.72397
-5.76882
-5.80949
-5.84682
-5.88124
-5.91282
-5.94126
-5.96476
-6.80538
-6.80538
-6.8057
-6.80639
-6.80729
-6.80831
-6.80947
-6.81078
-6.81228
-6.81402
-6.81606
-6.81844
-6.8212
-6.8244
-6.82808
-6.83227
-6.83703
-6.8424
-6.84842
-6.85512
-6.86257
-6.87079
-6.87983
-6.88975
-6.9006
-6.91243
-6.92533
-6.9394
-6.95479
-6.97176
-6.99043
-7.01072
-7.03202
-7.05359
-7.07479
-7.096
-7.11852
-7.14327
-7.16991
-7.19704
-7.2242
-7.25224
-7.27889
-7.30167
-7.32604
-7.3539
-7.3824
-7.4118
-7.44172
-7.47201
-7.50251
-7.53311
-7.56368
-7.59412
-7.62434
-7.65421
-7.68365
-7.71254
-7.74078
-7.76825
-7.79483
-7.8204
-7.84483
-7.86798
-7.88971
-7.90987
-7.92831
-7.94487
-7.95938
-7.97168
-7.98158
-7.98891
-7.99348
-7.99512
-7.99361
-7.98878
-7.98043
-7.96836
-7.95238
-7.93229
-7.9079
-7.87902
-7.84545
-7.80701
-7.76352
-7.7148
-7.66067
-7.60098
-7.53557
-7.46427
-7.38696
-7.3035
-7.21377
-7.11766
-7.01511
-6.9061
-6.79075
-6.66901
-6.54037
-6.40453
-6.26171
-6.11199
-5.95542
-5.79203
-5.62185
-5.44493
-5.26132
-5.0711
-4.87436
-4.67121
-4.46175
-4.24614
-4.02451
-3.79703
-3.56387
-3.32524
-3.08133
-2.83236
-2.57857
-2.32018
-2.05746
-1.79067
-1.52008
-1.24596
-0.968612
-0.68832
-0.405384
-0.120108
0.167205
0.456251
0.746733
1.03834
1.33072
1.62357
1.91662
2.20956
2.5021
2.79394
3.08477
3.37433
3.66233
3.94852
4.23264
4.51444
4.79368
5.07015
5.34362
5.6139
5.8808
6.14414
6.40375
6.65948
6.91119
7.15875
7.40205
7.64097
7.87543
8.10535
8.33064
8.55124
8.76711
8.97821
9.18449
9.38596
9.58275
9.77472
9.96156
10.1432
10.3198
10.4912
10.6576
10.8188
10.975
11.1262
11.2726
11.4144
11.5528
11.6888
11.833
11.9818
-6.80448
-6.8047
-6.80512
-6.80575
-6.8064
-6.80697
-6.80752
-6.80819
-6.8091
-6.8103
-6.81183
-6.81375
-6.81607
-6.81882
-6.82204
-6.82575
-6.83
-6.83483
-6.84028
-6.8464
-6.85324
-6.86083
-6.86923
-6.87848
-6.88862
-6.89968
-6.91169
-6.92463
-6.93847
-6.95315
-6.9685
-6.98445
-7.00113
-7.01884
-7.03792
-7.05894
-7.08189
-7.1046
-7.12639
-7.14985
-7.17539
-7.20163
-7.22995
-7.26465
-7.29994
-7.33079
-7.36125
-7.39161
-7.42201
-7.45248
-7.48299
-7.5135
-7.54393
-7.57421
-7.60424
-7.63394
-7.66321
-7.69196
-7.72007
-7.74743
-7.77394
-7.79947
-7.82389
-7.84707
-7.86886
-7.88913
-7.90772
-7.92446
-7.93921
-7.95178
-7.962
-7.9697
-7.97469
-7.97678
-7.97579
-7.97152
-7.96378
-7.95237
-7.9371
-7.91778
-7.8942
-7.86618
-7.83353
-7.79606
-7.75359
-7.70595
-7.65296
-7.59446
-7.53029
-7.46031
-7.38437
-7.30235
-7.21412
-7.11956
-7.01857
-6.91102
-6.79674
-6.67553
-6.54754
-6.41295
-6.27163
-6.12352
-5.96859
-5.80686
-5.63835
-5.4631
-5.28117
-5.09263
-4.89756
-4.69607
-4.48826
-4.27428
-4.05426
-3.82837
-3.59677
-3.35967
-3.11726
-2.86975
-2.61737
-2.36036
-2.09897
-1.83345
-1.56408
-1.29114
-1.0149
-0.735659
-0.453714
-0.169366
0.117082
0.40533
0.695082
0.986027
1.27782
1.57015
1.86274
2.1553
2.44753
2.73912
3.02978
3.31924
3.60721
3.89343
4.17765
4.45961
4.73909
5.01585
5.28967
5.56036
5.82772
6.09157
6.35175
6.6081
6.86047
7.10873
7.35277
7.59248
7.82776
8.05852
8.2847
8.50622
8.72304
8.93514
9.1425
9.34508
9.54252
9.73467
9.92168
10.1036
10.2804
10.4521
10.6188
10.7805
10.9371
11.0889
11.2359
11.3787
11.5186
11.6564
11.8036
11.948
-6.80121
-6.80198
-6.80308
-6.80409
-6.80475
-6.80515
-6.80548
-6.8059
-6.80654
-6.80748
-6.80879
-6.8105
-6.81263
-6.81522
-6.81829
-6.82187
-6.826
-6.83072
-6.83608
-6.8421
-6.84884
-6.85634
-6.86465
-6.87381
-6.88386
-6.89484
-6.90676
-6.91966
-6.93352
-6.9483
-6.96389
-6.98018
-6.99724
-7.01533
-7.03484
-7.05614
-7.07923
-7.1033
-7.12771
-7.15291
-7.17876
-7.2045
-7.23058
-7.25858
-7.28777
-7.31688
-7.34635
-7.37605
-7.4059
-7.43583
-7.46581
-7.49578
-7.52568
-7.55542
-7.58493
-7.61414
-7.64294
-7.67124
-7.69895
-7.72595
-7.75213
-7.77737
-7.80154
-7.82452
-7.84617
-7.86633
-7.88486
-7.90161
-7.9164
-7.92908
-7.93946
-7.94738
-7.95264
-7.95507
-7.95448
-7.95067
-7.94345
-7.93262
-7.918
-7.89939
-7.8766
-7.84943
-7.81769
-7.7812
-7.73977
-7.69323
-7.64141
-7.58415
-7.52127
-7.45264
-7.3781
-7.29753
-7.21081
-7.11781
-7.01843
-6.91258
-6.8001
-6.68081
-6.55476
-6.42202
-6.28256
-6.13634
-5.98335
-5.82359
-5.65706
-5.48382
-5.30391
-5.11739
-4.92435
-4.72489
-4.51911
-4.30715
-4.08913
-3.86523
-3.63561
-3.40045
-3.15996
-2.91434
-2.66381
-2.40861
-2.14899
-1.8852
-1.6175
-1.34617
-1.07149
-0.793756
-0.513252
-0.230281
0.0548534
0.341854
0.63043
0.920262
1.21102
1.50239
1.7941
2.08585
2.37733
2.66826
2.95834
3.24728
3.53482
3.82067
4.1046
4.38634
4.66566
4.94233
5.21613
5.48686
5.75432
6.01833
6.27872
6.53532
6.788
7.03662
7.28105
7.52119
7.75693
7.98818
8.21486
8.43691
8.65425
8.86681
9.07455
9.27747
9.47551
9.66863
9.85678
10.0398
10.2178
10.3907
10.5585
10.7213
10.8792
11.0322
11.1807
11.3252
11.4672
11.6068
11.7567
11.8902
-6.7957
-6.79716
-6.79932
-6.80115
-6.80232
-6.80308
-6.80366
-6.80425
-6.80498
-6.80596
-6.80727
-6.80895
-6.81106
-6.81363
-6.81668
-6.82025
-6.82438
-6.8291
-6.83445
-6.84046
-6.84718
-6.85466
-6.86292
-6.87202
-6.88199
-6.89287
-6.90468
-6.91745
-6.9312
-6.94588
-6.96146
-6.97787
-6.99511
-7.01328
-7.03257
-7.0532
-7.07521
-7.09845
-7.12266
-7.14775
-7.17357
-7.19984
-7.22653
-7.25382
-7.28166
-7.30996
-7.33868
-7.3677
-7.39693
-7.42631
-7.45577
-7.48525
-7.51468
-7.54399
-7.5731
-7.60192
-7.63038
-7.65837
-7.6858
-7.71255
-7.73853
-7.76361
-7.78766
-7.81055
-7.83215
-7.85232
-7.87089
-7.88772
-7.90264
-7.91549
-7.9261
-7.93427
-7.93985
-7.94263
-7.94244
-7.93907
-7.93234
-7.92206
-7.90802
-7.89004
-7.86792
-7.84147
-7.8105
-7.77482
-7.73425
-7.68862
-7.63774
-7.58145
-7.51959
-7.45202
-7.37857
-7.29912
-7.21353
-7.12169
-7.02348
-6.9188
-6.80755
-6.68962
-6.565
-6.43369
-6.29568
-6.15093
-5.99942
-5.84115
-5.67614
-5.50442
-5.32605
-5.14107
-4.94957
-4.75165
-4.54741
-4.33698
-4.12049
-3.8981
-3.66997
-3.43629
-3.19726
-2.95307
-2.70394
-2.45012
-2.19184
-1.92935
-1.66292
-1.39282
-1.11933
-0.842735
-0.563325
-0.281403
0.00273177
0.288787
0.576471
0.865451
1.1554
1.44605
1.73709
2.02823
2.31915
2.60957
2.8992
3.18775
3.47495
3.76053
4.04423
4.3258
4.605
4.88161
5.15539
5.42615
5.69369
5.95782
6.21837
6.47517
6.72809
6.97698
7.22171
7.46218
7.69826
7.92987
8.15693
8.37938
8.59714
8.81016
9.01837
9.22174
9.4203
9.61405
9.80289
9.9867
10.1654
10.3391
10.5077
10.6713
10.8299
10.9838
11.1333
11.2787
11.4217
11.5612
11.7097
11.8304
-6.78919
-6.79138
-6.79484
-6.79775
-6.79967
-6.80099
-6.80204
-6.80301
-6.80405
-6.80529
-6.80682
-6.80869
-6.81098
-6.81371
-6.81693
-6.82067
-6.82496
-6.82985
-6.83537
-6.84156
-6.84846
-6.85611
-6.86455
-6.87381
-6.88395
-6.89498
-6.90693
-6.91983
-6.93368
-6.94849
-6.96425
-6.98092
-6.99851
-7.01704
-7.03656
-7.05715
-7.07881
-7.10149
-7.12511
-7.1496
-7.17484
-7.20072
-7.22719
-7.25421
-7.28169
-7.30956
-7.33777
-7.36628
-7.39501
-7.42392
-7.45294
-7.48201
-7.51105
-7.54
-7.56877
-7.5973
-7.62548
-7.65323
-7.68045
-7.70703
-7.73286
-7.75783
-7.7818
-7.80465
-7.82624
-7.84643
-7.86506
-7.88198
-7.89703
-7.91004
-7.92083
-7.92924
-7.93507
-7.93814
-7.93826
-7.93525
-7.9289
-7.91903
-7.90544
-7.88793
-7.86632
-7.8404
-7.80999
-7.7749
-7.73495
-7.68996
-7.63975
-7.58416
-7.52303
-7.4562
-7.38352
-7.30485
-7.22007
-7.12906
-7.0317
-6.92788
-6.81753
-6.70056
-6.57693
-6.44663
-6.30961
-6.16586
-6.01536
-5.85812
-5.69414
-5.52345
-5.34611
-5.16218
-4.97172
-4.77484
-4.57163
-4.36223
-4.14676
-3.92539
-3.69827
-3.46558
-3.22751
-2.98428
-2.7361
-2.48319
-2.22581
-1.96419
-1.69861
-1.42933
-1.15662
-0.880786
-0.602104
-0.320878
-0.0374057
0.248031
0.53512
0.82353
1.11295
1.40312
1.69374
1.98448
2.27504
2.56514
2.85448
3.14279
3.42979
3.71521
3.99879
4.28028
4.55943
4.83603
5.10984
5.38066
5.6483
5.91256
6.17326
6.43026
6.6834
6.93253
7.17752
7.41827
7.65466
7.88661
8.11404
8.33685
8.555
8.7684
8.97701
9.18077
9.37966
9.5737
9.76283
9.94695
10.126
10.3001
10.469
10.633
10.7921
10.9464
11.0962
11.2419
11.3848
11.5229
11.6683
11.777
-6.78299
-6.78588
-6.7906
-6.79459
-6.79733
-6.79931
-6.80092
-6.80238
-6.80386
-6.80549
-6.80738
-6.8096
-6.8122
-6.81525
-6.81878
-6.82284
-6.82745
-6.83266
-6.8385
-6.84502
-6.85225
-6.86023
-6.86899
-6.87859
-6.88904
-6.90038
-6.91263
-6.92581
-6.93992
-6.95498
-6.97098
-6.98791
-7.00578
-7.02457
-7.04429
-7.06494
-7.0865
-7.10894
-7.13221
-7.15627
-7.18105
-7.20645
-7.23245
-7.25899
-7.28599
-7.3134
-7.34118
-7.36925
-7.39758
-7.42611
-7.45476
-7.48349
-7.51223
-7.5409
-7.56942
-7.59773
-7.62572
-7.6533
-7.68039
-7.70687
-7.73263
-7.75755
-7.78151
-7.80437
-7.826
-7.84626
-7.86498
-7.88203
-7.89722
-7.9104
-7.92138
-7.93
-7.93607
-7.93939
-7.93979
-7.93708
-7.93105
-7.92151
-7.90827
-7.89113
-7.8699
-7.84438
-7.81439
-7.77973
-7.74022
-7.69569
-7.64596
-7.59086
-7.53022
-7.4639
-7.39175
-7.31362
-7.2294
-7.13895
-7.04217
-6.93896
-6.82923
-6.7129
-6.58994
-6.4603
-6.32395
-6.18087
-6.03105
-5.87447
-5.71117
-5.54117
-5.36452
-5.18127
-4.9915
-4.7953
-4.59278
-4.38406
-4.16928
-3.94857
-3.72212
-3.49009
-3.25267
-3.01008
-2.76253
-2.51024
-2.25346
-1.99243
-1.72742
-1.4587
-1.18653
-0.911213
-0.633032
-0.352289
-0.069271
0.215733
0.502396
0.790397
1.07945
1.36929
1.65959
1.95004
2.24034
2.5302
2.81933
3.10746
3.3943
3.67959
3.96307
4.24448
4.52359
4.80016
5.07398
5.34483
5.61252
5.87686
6.13767
6.39479
6.64806
6.89735
7.14254
7.38349
7.62011
7.8523
8.07997
8.30305
8.52145
8.73512
8.94399
9.148
9.34711
9.54133
9.73063
9.91494
10.0942
10.2685
10.4377
10.6019
10.7612
10.9157
11.0656
11.2111
11.3533
11.4895
11.6318
11.7298
-6.77814
-6.78167
-6.78744
-6.79238
-6.79589
-6.79854
-6.80074
-6.80274
-6.80471
-6.8068
-6.80912
-6.81175
-6.81476
-6.81821
-6.82214
-6.82659
-6.8316
-6.83722
-6.84347
-6.85039
-6.85803
-6.86641
-6.87558
-6.88556
-6.89638
-6.90808
-6.92066
-6.93414
-6.94852
-6.96382
-6.98004
-6.99716
-7.01517
-7.03408
-7.05387
-7.07451
-7.09599
-7.11827
-7.14131
-7.16507
-7.18951
-7.21458
-7.24022
-7.26638
-7.29301
-7.32007
-7.3475
-7.37525
-7.40327
-7.43151
-7.4599
-7.48839
-7.51691
-7.5454
-7.57376
-7.60193
-7.62982
-7.65733
-7.68437
-7.71082
-7.73658
-7.76153
-7.78554
-7.80847
-7.8302
-7.85057
-7.86943
-7.88662
-7.90198
-7.91534
-7.92652
-7.93535
-7.94163
-7.94519
-7.94583
-7.94335
-7.93758
-7.9283
-7.91533
-7.89846
-7.87751
-7.85228
-7.82257
-7.78821
-7.749
-7.70477
-7.65535
-7.60055
-7.54024
-7.47424
-7.40241
-7.32462
-7.24073
-7.15063
-7.05421
-6.95136
-6.84201
-6.72609
-6.60353
-6.47429
-6.33835
-6.19568
-6.04626
-5.8901
-5.72721
-5.55763
-5.38139
-5.19856
-5.00922
-4.81345
-4.61135
-4.40306
-4.1887
-3.96842
-3.74239
-3.51078
-3.27378
-3.0316
-2.78446
-2.53258
-2.2762
-2.01556
-1.75094
-1.48259
-1.21079
-0.935829
-0.657997
-0.37759
-0.0948918
0.189792
0.476136
0.763835
1.05262
1.3422
1.63226
1.92248
2.21256
2.50223
2.79118
3.07915
3.36584
3.651
3.93437
4.21569
4.49473
4.77125
5.04503
5.31586
5.58354
5.84789
6.10873
6.3659
6.61924
6.86862
7.1139
7.35497
7.59171
7.82404
8.05185
8.27507
8.49363
8.70746
8.91649
9.12066
9.31992
9.51428
9.70371
9.88815
10.0676
10.242
10.4113
10.5757
10.7351
10.8896
11.0394
11.1844
11.3257
11.4598
11.5991
11.688
-6.77534
-6.77938
-6.78592
-6.79162
-6.7958
-6.79905
-6.80181
-6.80434
-6.8068
-6.80935
-6.81212
-6.81519
-6.81863
-6.8225
-6.82686
-6.83173
-6.83717
-6.8432
-6.84988
-6.85722
-6.86528
-6.87407
-6.88364
-6.894
-6.90519
-6.91722
-6.93012
-6.94388
-6.95851
-6.97402
-6.99041
-7.00766
-7.02578
-7.04474
-7.06453
-7.08514
-7.10652
-7.12867
-7.15153
-7.17508
-7.19928
-7.22408
-7.24945
-7.27534
-7.30171
-7.32852
-7.35571
-7.38324
-7.41105
-7.4391
-7.46734
-7.49569
-7.5241
-7.55249
-7.58079
-7.60892
-7.63679
-7.66431
-7.69138
-7.71788
-7.74371
-7.76875
-7.79287
-7.81593
-7.8378
-7.85832
-7.87734
-7.8947
-7.91024
-7.92379
-7.93516
-7.94418
-7.95066
-7.95441
-7.95525
-7.95297
-7.94739
-7.9383
-7.92551
-7.90883
-7.88806
-7.863
-7.83347
-7.79928
-7.76024
-7.71617
-7.6669
-7.61227
-7.55211
-7.48626
-7.41459
-7.33695
-7.25323
-7.16329
-7.06703
-6.96436
-6.85519
-6.73945
-6.61709
-6.48805
-6.3523
-6.20982
-6.0606
-5.90464
-5.74196
-5.57258
-5.39656
-5.21395
-5.02483
-4.82928
-4.62741
-4.41935
-4.20522
-3.98518
-3.75939
-3.52802
-3.29127
-3.04934
-2.80245
-2.55081
-2.29468
-2.0343
-1.76992
-1.50182
-1.23026
-0.955543
-0.67795
-0.397774
-0.115306
0.169136
0.45524
0.742713
1.03129
1.32067
1.61054
1.90057
2.19047
2.47996
2.76875
3.05656
3.34312
3.62815
3.91139
4.19261
4.47154
4.74797
5.02168
5.29245
5.56008
5.8244
6.08522
6.34238
6.59573
6.84512
7.09043
7.33154
7.56833
7.80071
8.02859
8.25189
8.47053
8.68445
8.89357
9.09783
9.2972
9.49165
9.68117
9.8657
10.0452
10.2197
10.3891
10.5535
10.7129
10.8673
11.0168
11.1613
11.3014
11.4334
11.57
11.6509
-6.77495
-6.77933
-6.78637
-6.79259
-6.79729
-6.80104
-6.80429
-6.80728
-6.81019
-6.81318
-6.81637
-6.81985
-6.82369
-6.82796
-6.83271
-6.83798
-6.84381
-6.85024
-6.85731
-6.86505
-6.87348
-6.88265
-6.89257
-6.90327
-6.91478
-6.9271
-6.94025
-6.95424
-6.96907
-6.98474
-7.00125
-7.0186
-7.03676
-7.05575
-7.07552
-7.09607
-7.11738
-7.13941
-7.16213
-7.18553
-7.20956
-7.23419
-7.25938
-7.2851
-7.3113
-7.33795
-7.36499
-7.3924
-7.42011
-7.44807
-7.47624
-7.50455
-7.53294
-7.56134
-7.58966
-7.61784
-7.64577
-7.67337
-7.70054
-7.72716
-7.75312
-7.7783
-7.80257
-7.8258
-7.84783
-7.86853
-7.88773
-7.90527
-7.92099
-7.93471
-7.94626
-7.95544
-7.96208
-7.96599
-7.96697
-7.96483
-7.95937
-7.9504
-7.93771
-7.92113
-7.90043
-7.87545
-7.84598
-7.81183
-7.77283
-7.7288
-7.67956
-7.62494
-7.5648
-7.49896
-7.4273
-7.34966
-7.26594
-7.176
-7.07975
-6.97709
-6.86794
-6.75222
-6.62988
-6.50087
-6.36515
-6.2227
-6.07352
-5.9176
-5.75496
-5.58563
-5.40967
-5.22712
-5.03806
-4.84259
-4.64081
-4.43284
-4.2188
-3.99887
-3.77318
-3.54193
-3.30531
-3.0635
-2.81674
-2.56525
-2.30926
-2.04903
-1.78481
-1.51687
-1.24547
-0.97092
-0.693494
-0.413483
-0.131193
0.15306
0.438978
0.726271
1.01467
1.30389
1.59358
1.88344
2.17318
2.46251
2.75114
3.03879
3.32519
3.61007
3.89318
4.17426
4.45307
4.72939
5.00299
5.27366
5.54121
5.80545
6.06621
6.32331
6.57661
6.82596
7.07125
7.31233
7.54912
7.78151
8.0094
8.23272
8.45139
8.66533
8.8745
9.07881
9.27823
9.47274
9.6623
9.84688
10.0264
10.201
10.3704
10.5348
10.6941
10.8483
10.9974
11.1411
11.28
11.4098
11.544
11.6182
-6.77703
-6.78158
-6.78884
-6.79535
-6.80041
-6.80454
-6.80818
-6.81154
-6.81483
-6.81818
-6.82172
-6.82555
-6.82974
-6.83436
-6.83944
-6.84505
-6.85122
-6.85798
-6.86537
-6.87342
-6.88216
-6.89162
-6.90181
-6.91277
-6.9245
-6.93703
-6.95036
-6.96451
-6.97947
-6.99524
-7.01183
-7.02922
-7.04741
-7.06639
-7.08614
-7.10665
-7.12788
-7.14984
-7.17247
-7.19577
-7.2197
-7.24423
-7.26933
-7.29497
-7.3211
-7.34769
-7.37469
-7.40206
-7.42976
-7.45773
-7.48593
-7.51428
-7.54273
-7.57121
-7.59964
-7.62793
-7.65599
-7.68374
-7.71106
-7.73784
-7.76398
-7.78933
-7.81379
-7.83719
-7.85941
-7.88028
-7.89966
-7.91737
-7.93324
-7.94711
-7.95879
-7.96809
-7.97484
-7.97884
-7.9799
-7.97781
-7.9724
-7.96345
-7.95078
-7.93418
-7.91347
-7.88845
-7.85892
-7.82471
-7.78564
-7.74151
-7.69217
-7.63745
-7.57719
-7.51123
-7.43944
-7.36168
-7.27783
-7.18777
-7.09139
-6.98861
-6.87934
-6.76351
-6.64106
-6.51194
-6.37612
-6.23358
-6.08431
-5.92831
-5.7656
-5.59621
-5.42019
-5.2376
-5.0485
-4.85301
-4.65121
-4.44323
-4.2292
-4.00927
-3.78362
-3.5524
-3.31582
-3.07407
-2.82738
-2.57596
-2.32006
-2.05992
-1.7958
-1.52797
-1.2567
-0.982272
-0.704975
-0.425103
-0.14297
0.14112
0.426876
0.714004
1.00224
1.29129
1.58081
1.87049
2.16005
2.4492
2.73765
3.02513
3.31136
3.59607
3.87902
4.15994
4.43859
4.71476
4.98822
5.25875
5.52618
5.79029
6.05093
6.30793
6.56113
6.8104
7.05561
7.29663
7.53336
7.7657
7.99356
8.21685
8.4355
8.64944
8.8586
9.06292
9.26237
9.45689
9.64647
9.83107
10.0106
10.1852
10.3546
10.5189
10.678
10.8319
10.9805
11.1234
11.261
11.3887
11.5208
11.5893
-6.78144
-6.786
-6.79323
-6.79983
-6.80507
-6.80945
-6.81335
-6.81699
-6.82055
-6.82418
-6.82799
-6.83209
-6.83654
-6.84141
-6.84675
-6.8526
-6.859
-6.86599
-6.8736
-6.88186
-6.89079
-6.90043
-6.91079
-6.9219
-6.93377
-6.94641
-6.95985
-6.97408
-6.9891
-7.00493
-7.02155
-7.03896
-7.05716
-7.07613
-7.09586
-7.11634
-7.13755
-7.15946
-7.18206
-7.20532
-7.22922
-7.25372
-7.2788
-7.30443
-7.33057
-7.35718
-7.38422
-7.41165
-7.43942
-7.46748
-7.49579
-7.52426
-7.55285
-7.58148
-7.61006
-7.63851
-7.66675
-7.69468
-7.72218
-7.74915
-7.77547
-7.80101
-7.82565
-7.84922
-7.8716
-7.89263
-7.91214
-7.92997
-7.94595
-7.95991
-7.97165
-7.98101
-7.98779
-7.99179
-7.99283
-7.99072
-7.98525
-7.97623
-7.96346
-7.94675
-7.9259
-7.90073
-7.87104
-7.83665
-7.79738
-7.75305
-7.7035
-7.64855
-7.58806
-7.52187
-7.44984
-7.37184
-7.28775
-7.19746
-7.10086
-6.99785
-6.88836
-6.77232
-6.64966
-6.52035
-6.38434
-6.24162
-6.09218
-5.93602
-5.77316
-5.60363
-5.42748
-5.24477
-5.05558
-4.85999
-4.65812
-4.45007
-4.236
-4.01604
-3.79037
-3.55915
-3.32257
-3.08085
-2.83419
-2.58282
-2.32699
-2.06692
-1.80289
-1.53516
-1.264
-0.989697
-0.712533
-0.432812
-0.150843
0.13308
0.418663
0.705608
0.993658
1.28252
1.57185
1.86133
2.15068
2.43963
2.72787
3.01514
3.30116
3.58567
3.86841
4.14913
4.42758
4.70356
4.97682
5.24718
5.51442
5.77837
6.03884
6.29569
6.54875
6.79788
7.04297
7.28388
7.5205
7.75275
7.98053
8.20375
8.42235
8.63624
8.84536
9.04967
9.24909
9.44361
9.63319
9.81777
9.99733
10.1718
10.3412
10.5054
10.6643
10.8178
10.9659
11.1079
11.2442
11.3699
11.4999
11.5637
-6.78789
-6.79233
-6.79934
-6.80583
-6.8111
-6.81558
-6.81961
-6.82341
-6.82714
-6.83093
-6.83491
-6.83916
-6.84376
-6.84877
-6.85424
-6.86021
-6.86672
-6.87381
-6.88151
-6.88986
-6.89888
-6.90859
-6.91902
-6.93019
-6.94211
-6.9548
-6.96827
-6.98252
-6.99756
-7.0134
-7.03002
-7.04743
-7.06563
-7.08459
-7.10431
-7.12478
-7.14598
-7.1679
-7.19051
-7.21379
-7.23772
-7.26227
-7.2874
-7.31308
-7.33928
-7.36597
-7.39312
-7.42067
-7.44858
-7.4768
-7.50527
-7.53392
-7.56269
-7.59149
-7.62026
-7.6489
-7.67732
-7.70543
-7.73311
-7.76025
-7.78673
-7.81242
-7.83719
-7.86089
-7.88337
-7.90448
-7.92406
-7.94193
-7.95793
-7.97188
-7.9836
-7.99291
-7.99961
-8.00351
-8.00443
-8.00216
-7.99652
-7.98731
-7.97433
-7.95739
-7.9363
-7.91086
-7.8809
-7.84622
-7.80664
-7.76201
-7.71214
-7.65687
-7.59605
-7.52954
-7.45718
-7.37886
-7.29446
-7.20385
-7.10694
-7.00364
-6.89386
-6.77754
-6.65462
-6.52505
-6.3888
-6.24584
-6.09618
-5.93982
-5.77677
-5.60707
-5.43076
-5.24791
-5.05859
-4.8629
-4.66093
-4.45281
-4.23868
-4.01869
-3.79299
-3.56176
-3.3252
-3.08351
-2.8369
-2.5856
-2.32984
-2.06987
-1.80596
-1.53835
-1.26733
-0.993176
-0.71618
-0.436644
-0.154864
0.128866
0.414239
0.700964
0.9888
1.27743
1.56651
1.85574
2.14485
2.43354
2.72152
3.00853
3.2943
3.57854
3.86102
4.14148
4.41968
4.69541
4.96843
5.23854
5.50556
5.76928
6.02954
6.28619
6.53905
6.78801
7.03292
7.27367
7.51015
7.74226
7.96992
8.19304
8.41154
8.62535
8.83441
9.03866
9.23805
9.43254
9.62209
9.80664
9.98616
10.1606
10.3298
10.4939
10.6525
10.8057
10.9531
11.0942
11.2292
11.3532
11.4812
11.5413
-6.79603
-6.80024
-6.80688
-6.81311
-6.81826
-6.8227
-6.82674
-6.83056
-6.83432
-6.83815
-6.84216
-6.84643
-6.85104
-6.85604
-6.8615
-6.86745
-6.87395
-6.88103
-6.88871
-6.89704
-6.90603
-6.91572
-6.92613
-6.93727
-6.94917
-6.96183
-6.97527
-6.9895
-7.00452
-7.02033
-7.03694
-7.05434
-7.07252
-7.09148
-7.11121
-7.1317
-7.15294
-7.17489
-7.19755
-7.22088
-7.24486
-7.26947
-7.29468
-7.32047
-7.34679
-7.37362
-7.40092
-7.42864
-7.45673
-7.48513
-7.51379
-7.54262
-7.57157
-7.60054
-7.62947
-7.65827
-7.68683
-7.71507
-7.74286
-7.77011
-7.79668
-7.82243
-7.84724
-7.87097
-7.89344
-7.91453
-7.93405
-7.95184
-7.96774
-7.98155
-7.99311
-8.00223
-8.00873
-8.0124
-8.01306
-8.01052
-8.00459
-7.99506
-7.98175
-7.96447
-7.94302
-7.91721
-7.88686
-7.8518
-7.81183
-7.7668
-7.71653
-7.66087
-7.59965
-7.53275
-7.46001
-7.38131
-7.29654
-7.20558
-7.10832
-7.00469
-6.89459
-6.77796
-6.65475
-6.5249
-6.3884
-6.24521
-6.09533
-5.93876
-5.77553
-5.60566
-5.42921
-5.24623
-5.05681
-4.86102
-4.65899
-4.45083
-4.23667
-4.01667
-3.79099
-3.5598
-3.32329
-3.08167
-2.83515
-2.58395
-2.32833
-2.06851
-1.80475
-1.53733
-1.2665
-0.992552
-0.715793
-0.436501
-0.154961
0.128512
0.413605
0.700051
0.987614
1.27595
1.5647
1.85362
2.1424
2.43077
2.71843
3.00511
3.29055
3.57447
3.85662
4.13676
4.41464
4.69005
4.96277
5.23259
5.49931
5.76275
6.02275
6.27913
6.53175
6.78047
7.02516
7.26571
7.502
7.73394
7.96144
8.18441
8.40279
8.61649
8.82546
9.02964
9.22897
9.42341
9.61291
9.79742
9.97688
10.1512
10.3204
10.4842
10.6426
10.7953
10.9421
11.0823
11.216
11.3382
11.4644
11.5216
-6.8055
-6.80942
-6.81558
-6.82142
-6.82632
-6.83057
-6.83446
-6.83815
-6.84178
-6.84548
-6.84935
-6.85349
-6.85796
-6.86282
-6.86814
-6.87397
-6.88033
-6.88727
-6.89483
-6.90304
-6.91192
-6.9215
-6.9318
-6.94285
-6.95465
-6.96723
-6.9806
-6.99476
-7.00973
-7.0255
-7.04208
-7.05946
-7.07764
-7.09661
-7.11635
-7.13685
-7.15811
-7.18009
-7.20279
-7.22618
-7.25024
-7.27494
-7.30026
-7.32618
-7.35265
-7.37963
-7.40708
-7.43496
-7.46321
-7.49176
-7.52055
-7.54951
-7.57856
-7.60763
-7.63663
-7.66547
-7.69407
-7.72232
-7.75011
-7.77732
-7.80383
-7.82951
-7.85421
-7.8778
-7.90012
-7.92101
-7.94031
-7.95787
-7.97349
-7.98702
-7.99827
-8.00706
-8.01319
-8.0165
-8.01677
-8.01383
-8.00748
-7.99752
-7.98378
-7.96605
-7.94415
-7.9179
-7.8871
-7.85158
-7.81117
-7.76568
-7.71497
-7.65887
-7.59724
-7.52992
-7.45678
-7.3777
-7.29255
-7.20123
-7.10364
-6.99968
-6.88928
-6.77236
-6.64888
-6.51879
-6.38206
-6.23866
-6.0886
-5.93187
-5.76849
-5.59851
-5.42196
-5.23891
-5.04943
-4.85362
-4.65158
-4.44344
-4.22932
-4.00938
-3.78378
-3.5527
-3.31632
-3.07485
-2.8285
-2.5775
-2.32208
-2.06249
-1.79899
-1.53183
-1.26128
-0.987652
-0.711217
-0.43224
-0.151028
0.132089
0.416807
0.702904
0.990109
1.27804
1.56639
1.8549
2.14328
2.43124
2.71849
3.00476
3.28979
3.5733
3.85505
4.13479
4.41228
4.68731
4.95965
5.2291
5.49546
5.75856
6.01823
6.27429
6.52661
6.77505
7.01947
7.25976
7.49582
7.72755
7.95485
8.17765
8.39587
8.60944
8.8183
9.02238
9.22164
9.41601
9.60546
9.78991
9.9693
10.1436
10.3126
10.4762
10.6343
10.7866
10.9327
11.072
11.2045
11.3251
11.4494
11.5045
-6.81599
-6.81959
-6.82521
-6.83057
-6.83507
-6.83898
-6.84254
-6.84591
-6.84923
-6.85262
-6.85619
-6.86004
-6.86422
-6.86881
-6.87387
-6.87944
-6.88555
-6.89227
-6.8996
-6.9076
-6.91628
-6.92568
-6.93581
-6.9467
-6.95837
-6.97083
-6.98408
-6.99814
-7.01301
-7.02869
-7.0452
-7.06252
-7.08065
-7.09958
-7.1193
-7.13979
-7.16105
-7.18304
-7.20578
-7.22923
-7.25337
-7.27817
-7.30359
-7.32959
-7.35614
-7.38319
-7.41069
-7.43861
-7.46688
-7.49544
-7.52423
-7.55316
-7.58216
-7.61115
-7.64003
-7.66874
-7.69719
-7.72526
-7.75285
-7.77983
-7.80609
-7.83149
-7.85589
-7.87915
-7.90112
-7.92164
-7.94055
-7.9577
-7.97289
-7.98598
-7.99677
-8.00509
-8.01074
-8.01356
-8.01334
-8.0099
-8.00304
-7.99258
-7.97834
-7.96011
-7.93771
-7.91096
-7.87967
-7.84367
-7.80279
-7.75685
-7.70569
-7.64916
-7.58712
-7.51941
-7.4459
-7.36646
-7.28098
-7.18934
-7.09145
-6.98722
-6.87657
-6.75943
-6.63575
-6.50548
-6.3686
-6.22507
-6.0749
-5.9181
-5.75467
-5.58465
-5.4081
-5.22507
-5.03564
-4.83991
-4.63796
-4.42994
-4.21598
-3.99621
-3.7708
-3.53994
-3.30381
-3.0626
-2.81654
-2.56585
-2.31076
-2.05152
-1.78838
-1.52161
-1.25148
-0.978278
-0.702257
-0.423706
-0.14295
0.139688
0.423927
0.709581
0.996311
1.28372
1.57156
1.85956
2.14743
2.43488
2.72162
3.00739
3.29191
3.57493
3.85618
4.13544
4.41245
4.68701
4.9589
5.22791
5.49385
5.75653
6.0158
6.27149
6.52345
6.77154
7.01565
7.25565
7.49143
7.72291
7.94998
8.17258
8.39062
8.60403
8.81276
9.01673
9.2159
9.4102
9.59958
9.78397
9.9633
10.1375
10.3063
10.4698
10.6276
10.7794
10.9249
11.0632
11.1945
11.3137
11.4361
11.4898
-6.82732
-6.83062
-6.8357
-6.8405
-6.84447
-6.84784
-6.85087
-6.8537
-6.8565
-6.85939
-6.86247
-6.86585
-6.86959
-6.87376
-6.87842
-6.88361
-6.88938
-6.89576
-6.90279
-6.9105
-6.91891
-6.92804
-6.93793
-6.94858
-6.96002
-6.97227
-6.98532
-6.9992
-7.01391
-7.02944
-7.04579
-7.06297
-7.08097
-7.0998
-7.11943
-7.13986
-7.16106
-7.18303
-7.20572
-7.22913
-7.25322
-7.27795
-7.30328
-7.32918
-7.35561
-7.38251
-7.40985
-7.43757
-7.46562
-7.49396
-7.52251
-7.55119
-7.57991
-7.60858
-7.63713
-7.66547
-7.69353
-7.72119
-7.74835
-7.77489
-7.80068
-7.82559
-7.84948
-7.87221
-7.89365
-7.91362
-7.93198
-7.94855
-7.96319
-7.9757
-7.98592
-7.99367
-7.99876
-8.00101
-8.00023
-7.99624
-7.98885
-7.97786
-7.96309
-7.94435
-7.92146
-7.89423
-7.86249
-7.82604
-7.78473
-7.73838
-7.68684
-7.62995
-7.56757
-7.49954
-7.42574
-7.34603
-7.2603
-7.16845
-7.07036
-6.96597
-6.85518
-6.73793
-6.61416
-6.48383
-6.34692
-6.20339
-6.05325
-5.89649
-5.73315
-5.56323
-5.38681
-5.20394
-5.0147
-4.81917
-4.61747
-4.40971
-4.19604
-3.97659
-3.75153
-3.52104