/*--------------------------------*- C++ -*----------------------------------*\
| =========                 |                                                 |
| \\      /  F ield         | OpenFOAM: The Open Source CFD Toolbox           |
|  \\    /   O peration     | Version:  5.x                                   |
|   \\  /    A nd           | Web:      www.OpenFOAM.org                      |
|    \\/     M anipulation  |                                                 |
\*---------------------------------------------------------------------------*/
FoamFile
{
    version     2.0;
    format      ascii;
    class       surfaceScalarField;
    location    "500";
    object      phi;
}
// * * * * * * * * * * * * * * * * * * * * * * * * * * * * * * * * * * * * * //

dimensions      [0 3 -1 0 0 0 0];

internalField   nonuniform List<scalar> 
24170
(
3.07328e-06
6.06093e-08
2.98872e-06
8.45595e-08
2.91399e-06
7.47301e-08
2.84409e-06
6.99043e-08
2.77875e-06
6.5334e-08
2.7208e-06
5.79545e-08
2.67122e-06
4.95781e-08
2.6293e-06
4.19172e-08
2.59386e-06
3.54455e-08
2.56379e-06
3.00632e-08
2.53805e-06
2.57444e-08
2.51576e-06
2.22945e-08
2.49625e-06
1.95097e-08
2.479e-06
1.72479e-08
2.46364e-06
1.53654e-08
2.44937e-06
1.42728e-08
2.43658e-06
1.27954e-08
1.53876e-08
2.42119e-06
3.49417e-06
2.28831e-08
3.49785e-06
8.0884e-08
3.49084e-06
8.17424e-08
3.4786e-06
8.21453e-08
3.46291e-06
8.10241e-08
3.44469e-06
7.61707e-08
3.42445e-06
6.98222e-08
3.40285e-06
6.35096e-08
3.38068e-06
5.76183e-08
3.3585e-06
5.22433e-08
3.33685e-06
4.73934e-08
3.31604e-06
4.31076e-08
3.29624e-06
3.93113e-08
3.27749e-06
3.59963e-08
3.25987e-06
3.29901e-08
3.24335e-06
3.07968e-08
3.22819e-06
2.7958e-08
2.75849e-08
3.21599e-06
3.81776e-06
1.73172e-08
3.82931e-06
6.93316e-08
3.83605e-06
7.50027e-08
3.84057e-06
7.76307e-08
3.84249e-06
7.90985e-08
3.84165e-06
7.7014e-08
3.83846e-06
7.30101e-08
3.83344e-06
6.85269e-08
3.82701e-06
6.40481e-08
3.81953e-06
5.9724e-08
3.81131e-06
5.56166e-08
3.80261e-06
5.18127e-08
3.79364e-06
4.82833e-08
3.78456e-06
4.50778e-08
3.77549e-06
4.20548e-08
3.76676e-06
3.95261e-08
3.75802e-06
3.6695e-08
3.47537e-08
3.75086e-06
4.20449e-06
1.73813e-08
4.21552e-06
5.83097e-08
4.2228e-06
6.77238e-08
4.2289e-06
7.15292e-08
4.23383e-06
7.41702e-08
4.23718e-06
7.3663e-08
4.23916e-06
7.10251e-08
4.24006e-06
6.7635e-08
4.24005e-06
6.40543e-08
4.23931e-06
6.04661e-08
4.23797e-06
5.69522e-08
4.23617e-06
5.36112e-08
4.23402e-06
5.04404e-08
4.23161e-06
4.74877e-08
4.229e-06
4.46591e-08
4.22642e-06
4.2106e-08
4.22365e-06
3.94729e-08
3.7007e-08
4.2214e-06
4.63826e-06
1.64273e-08
4.64695e-06
4.96177e-08
4.65319e-06
6.14871e-08
4.65877e-06
6.59474e-08
4.66405e-06
6.88891e-08
4.66853e-06
6.91875e-08
4.67215e-06
6.74011e-08
4.67505e-06
6.47366e-08
4.67733e-06
6.17742e-08
4.67909e-06
5.87089e-08
4.68041e-06
5.56318e-08
4.68138e-06
5.26389e-08
4.68207e-06
4.97514e-08
4.68255e-06
4.70051e-08
4.68286e-06
4.43479e-08
4.68313e-06
4.18426e-08
4.68328e-06
3.93229e-08
3.6781e-08
4.68351e-06
5.11638e-06
1.46433e-08
5.12329e-06
4.27052e-08
5.12915e-06
5.56211e-08
5.13451e-06
6.05898e-08
5.13983e-06
6.35753e-08
5.14466e-06
6.43513e-08
5.14887e-06
6.31877e-08
5.15254e-06
6.10688e-08
5.15574e-06
5.85714e-08
5.15855e-06
5.59042e-08
5.16101e-06
5.31682e-08
5.1632e-06
5.04528e-08
5.16516e-06
4.77964e-08
5.16694e-06
4.52251e-08
5.16857e-06
4.27161e-08
5.17013e-06
4.02867e-08
5.17159e-06
3.78564e-08
3.53791e-08
5.173e-06
5.64281e-06
1.28405e-08
5.64873e-06
3.67858e-08
5.65463e-06
4.97136e-08
5.66002e-06
5.52027e-08
5.66534e-06
5.82535e-08
5.67033e-06
5.93594e-08
5.67483e-06
5.86882e-08
5.67889e-06
5.70126e-08
5.68257e-06
5.4891e-08
5.68593e-06
5.25487e-08
5.689e-06
5.00955e-08
5.69184e-06
4.76157e-08
5.69448e-06
4.5158e-08
5.69696e-06
4.27449e-08
5.6993e-06
4.03714e-08
5.70155e-06
3.8037e-08
5.70371e-06
3.57037e-08
3.3337e-08
5.70575e-06
4.40734e-06
1.16157e-08
4.41112e-06
3.30032e-08
4.41535e-06
4.54754e-08
4.4193e-06
5.12544e-08
4.42315e-06
5.44079e-08
4.42682e-06
5.56894e-08
4.4302e-06
5.53041e-08
4.4333e-06
5.39134e-08
4.43615e-06
5.20374e-08
4.43879e-06
4.99064e-08
4.44125e-06
4.76374e-08
4.44355e-06
4.53144e-08
4.44572e-06
4.29901e-08
4.44778e-06
4.06878e-08
4.44974e-06
3.84105e-08
4.45162e-06
3.61558e-08
4.45343e-06
3.39016e-08
3.16273e-08
4.45514e-06
5.1411e-06
1.03722e-08
5.14488e-06
2.92174e-08
5.14934e-06
4.10194e-08
5.15363e-06
4.69646e-08
5.15784e-06
5.01924e-08
5.16191e-06
5.16226e-08
5.16571e-06
5.15066e-08
5.16922e-06
5.03962e-08
5.1725e-06
4.87662e-08
5.17555e-06
4.68505e-08
5.17842e-06
4.47706e-08
5.18112e-06
4.26112e-08
5.18369e-06
4.04272e-08
5.18613e-06
3.82459e-08
5.18846e-06
3.60755e-08
5.1907e-06
3.3917e-08
5.19285e-06
3.17588e-08
2.95956e-08
5.19488e-06
5.99706e-06
9.10843e-09
6.00079e-06
2.54851e-08
6.00539e-06
3.64107e-08
6.01e-06
4.23557e-08
6.01459e-06
4.5607e-08
6.01906e-06
4.71461e-08
6.0233e-06
4.72723e-08
6.02726e-06
4.6433e-08
6.03098e-06
4.50484e-08
6.03448e-06
4.33523e-08
6.03778e-06
4.14689e-08
6.04091e-06
3.9483e-08
6.04388e-06
3.74514e-08
6.04672e-06
3.54043e-08
6.04944e-06
3.33572e-08
6.05205e-06
3.13141e-08
6.05453e-06
2.92732e-08
2.72409e-08
6.05689e-06
6.99554e-06
7.8386e-09
6.99916e-06
2.18564e-08
7.00387e-06
3.17052e-08
7.00877e-06
3.74572e-08
7.0137e-06
4.06677e-08
7.01859e-06
4.22643e-08
7.02327e-06
4.25885e-08
7.0277e-06
4.19996e-08
7.03189e-06
4.08558e-08
7.03587e-06
3.93816e-08
7.03963e-06
3.77031e-08
7.04321e-06
3.59029e-08
7.04663e-06
3.40382e-08
7.04989e-06
3.21445e-08
7.053e-06
3.02401e-08
7.05598e-06
2.83366e-08
7.05882e-06
2.64369e-08
2.45585e-08
7.0615e-06
8.16027e-06
6.58443e-09
8.16377e-06
1.8352e-08
8.16852e-06
2.69604e-08
8.17366e-06
3.2314e-08
8.17893e-06
3.53947e-08
8.18421e-06
3.69874e-08
8.18935e-06
3.74504e-08
8.19427e-06
3.70786e-08
8.19896e-06
3.61628e-08
8.20343e-06
3.491e-08
8.20769e-06
3.34424e-08
8.21175e-06
3.1841e-08
8.21563e-06
3.01617e-08
8.21933e-06
2.84424e-08
8.22287e-06
2.67059e-08
8.22624e-06
2.49679e-08
8.22944e-06
2.3237e-08
2.15348e-08
8.23246e-06
9.51895e-06
5.36168e-09
9.52233e-06
1.49741e-08
9.52706e-06
2.22244e-08
9.5324e-06
2.69771e-08
9.53798e-06
2.98112e-08
9.54364e-06
3.13251e-08
9.54924e-06
3.18587e-08
9.55466e-06
3.16557e-08
9.55987e-06
3.09468e-08
9.56488e-06
2.99083e-08
9.56966e-06
2.86565e-08
9.57424e-06
2.72658e-08
9.57861e-06
2.57916e-08
9.58278e-06
2.42702e-08
9.58676e-06
2.27291e-08
9.59054e-06
2.11846e-08
9.59413e-06
1.96507e-08
1.81496e-08
9.59751e-06
1.11039e-05
4.17744e-09
1.11072e-05
1.1709e-08
1.11119e-05
1.75194e-08
1.11173e-05
2.14887e-08
1.11232e-05
2.39382e-08
1.11293e-05
2.52842e-08
1.11353e-05
2.58112e-08
1.11412e-05
2.57195e-08
1.1147e-05
2.51841e-08
1.11526e-05
2.43482e-08
1.11579e-05
2.33117e-08
1.1163e-05
2.21437e-08
1.11679e-05
2.08923e-08
1.11726e-05
1.95944e-08
1.11771e-05
1.82747e-08
1.11813e-05
1.69537e-08
1.11853e-05
1.56434e-08
1.43688e-08
1.11891e-05
1.29528e-05
3.02717e-09
1.2956e-05
8.5234e-09
1.29607e-05
1.28307e-08
1.29663e-05
1.58598e-08
1.29724e-05
1.77808e-08
1.29789e-05
1.88555e-08
1.29854e-05
1.92942e-08
1.29919e-05
1.92491e-08
1.29982e-05
1.88471e-08
1.30043e-05
1.81946e-08
1.30103e-05
1.7371e-08
1.3016e-05
1.64333e-08
1.30215e-05
1.54226e-08
1.30267e-05
1.43703e-08
1.30317e-05
1.32994e-08
1.30364e-05
1.22282e-08
1.30409e-05
1.11691e-08
1.01441e-08
1.30451e-05
1.51096e-05
1.89235e-09
1.51128e-05
5.35607e-09
1.51175e-05
8.09256e-09
1.51233e-05
1.0046e-08
1.51298e-05
1.12982e-08
1.51366e-05
1.19931e-08
1.51437e-05
1.22599e-08
1.51507e-05
1.21971e-08
1.51577e-05
1.1886e-08
1.51645e-05
1.13956e-08
1.51711e-05
1.07801e-08
1.51774e-05
1.008e-08
1.51835e-05
9.32583e-09
1.51894e-05
8.54102e-09
1.51949e-05
7.74391e-09
1.52002e-05
6.94909e-09
1.52052e-05
6.16662e-09
5.41479e-09
1.52099e-05
1.76256e-05
7.37406e-10
1.76289e-05
2.09912e-09
1.76338e-05
3.16338e-09
1.76399e-05
3.90673e-09
1.76469e-05
4.35751e-09
1.76543e-05
4.56908e-09
1.7662e-05
4.58749e-09
1.76697e-05
4.45259e-09
1.76774e-05
4.19783e-09
1.76849e-05
3.85459e-09
1.76923e-05
3.44696e-09
1.76994e-05
2.99585e-09
1.77062e-05
2.51663e-09
1.77127e-05
2.02331e-09
1.77189e-05
1.52612e-09
1.77248e-05
1.03479e-09
1.77304e-05
5.55022e-10
1.00922e-10
1.77357e-05
1.78273e-05
-3.52175e-10
1.78304e-05
-9.91123e-10
1.78351e-05
-1.5412e-09
1.7841e-05
-1.99225e-09
1.78477e-05
-2.34478e-09
1.78549e-05
-2.62653e-09
1.78623e-05
-2.86807e-09
1.78699e-05
-3.09055e-09
1.78774e-05
-3.30204e-09
1.78847e-05
-3.51117e-09
1.78919e-05
-3.72048e-09
1.78988e-05
-3.93281e-09
1.79055e-05
-4.14501e-09
1.79119e-05
-4.35628e-09
1.7918e-05
-4.56212e-09
1.79238e-05
-4.76074e-09
1.79293e-05
-4.9486e-09
-5.1178e-09
1.79345e-05
1.58823e-05
-1.3321e-09
1.58851e-05
-3.76588e-09
1.58893e-05
-5.77649e-09
1.58946e-05
-7.29281e-09
1.59006e-05
-8.33855e-09
1.5907e-05
-9.03041e-09
1.59136e-05
-9.4822e-09
1.59203e-05
-9.76119e-09
1.59269e-05
-9.91684e-09
1.59334e-05
-9.98981e-09
1.59397e-05
-1.00129e-08
1.59458e-05
-1.0004e-08
1.59516e-05
-9.97582e-09
1.59572e-05
-9.93371e-09
1.59625e-05
-9.88283e-09
1.59676e-05
-9.82349e-09
1.59724e-05
-9.75802e-09
-9.67942e-09
1.59769e-05
1.41496e-05
-2.25723e-09
1.41522e-05
-6.39392e-09
1.41562e-05
-9.80404e-09
1.41612e-05
-1.2291e-08
1.41668e-05
-1.39112e-08
1.41727e-05
-1.49206e-08
1.41787e-05
-1.55163e-08
1.41848e-05
-1.58043e-08
1.41907e-05
-1.58693e-08
1.41965e-05
-1.579e-08
1.42021e-05
-1.56218e-08
1.42075e-05
-1.53986e-08
1.42127e-05
-1.51417e-08
1.42176e-05
-1.48659e-08
1.42223e-05
-1.45801e-08
1.42268e-05
-1.42896e-08
1.4231e-05
-1.39974e-08
-1.37006e-08
1.42351e-05
1.26059e-05
-3.13998e-09
1.26085e-05
-8.97738e-09
1.26125e-05
-1.3803e-08
1.26174e-05
-1.71587e-08
1.26227e-05
-1.92212e-08
1.26282e-05
-2.04594e-08
1.26338e-05
-2.11314e-08
1.26394e-05
-2.13655e-08
1.26448e-05
-2.12949e-08
1.26501e-05
-2.10382e-08
1.26551e-05
-2.0669e-08
1.26599e-05
-2.02312e-08
1.26645e-05
-1.97533e-08
1.26689e-05
-1.92569e-08
1.26731e-05
-1.87538e-08
1.26771e-05
-1.82522e-08
1.26808e-05
-1.77557e-08
-1.72633e-08
1.26844e-05
1.12306e-05
-3.93459e-09
1.12332e-05
-1.15881e-08
1.12373e-05
-1.79311e-08
1.12422e-05
-2.19882e-08
1.12473e-05
-2.43347e-08
1.12525e-05
-2.57308e-08
1.12578e-05
-2.64147e-08
1.1263e-05
-2.65283e-08
1.1268e-05
-2.62757e-08
1.12728e-05
-2.58157e-08
1.12773e-05
-2.52337e-08
1.12817e-05
-2.45782e-08
1.12858e-05
-2.38854e-08
1.12897e-05
-2.31789e-08
1.12934e-05
-2.24742e-08
1.1297e-05
-2.17782e-08
1.13003e-05
-2.10967e-08
-2.0427e-08
1.13035e-05
1.00052e-05
-4.54122e-09
1.00079e-05
-1.42668e-08
1.00123e-05
-2.2318e-08
1.00171e-05
-2.68223e-08
1.00221e-05
-2.9292e-08
1.00271e-05
-3.07776e-08
1.00321e-05
-3.13942e-08
1.00369e-05
-3.1323e-08
1.00415e-05
-3.0855e-08
1.00458e-05
-3.0177e-08
1.005e-05
-2.93749e-08
1.00539e-05
-2.85021e-08
1.00576e-05
-2.75991e-08
1.00611e-05
-2.66931e-08
1.00645e-05
-2.57983e-08
1.00676e-05
-2.4923e-08
1.00706e-05
-2.40706e-08
-2.32407e-08
1.00734e-05
8.91342e-06
-4.85934e-09
8.91627e-06
-1.71207e-08
8.92086e-06
-2.69092e-08
8.92562e-06
-3.15765e-08
8.93047e-06
-3.41442e-08
8.93536e-06
-3.5669e-08
8.94008e-06
-3.61119e-08
8.94454e-06
-3.57879e-08
8.94877e-06
-3.50799e-08
8.95277e-06
-3.41742e-08
8.95654e-06
-3.31476e-08
8.96009e-06
-3.20564e-08
8.96344e-06
-3.09454e-08
8.96659e-06
-2.98427e-08
8.96955e-06
-2.87627e-08
8.97234e-06
-2.77125e-08
8.97496e-06
-2.66952e-08
-2.57073e-08
8.97743e-06
7.94029e-06
-4.4839e-09
7.9439e-06
-2.0724e-08
7.94845e-06
-3.14655e-08
7.95289e-06
-3.60192e-08
7.95767e-06
-3.89209e-08
7.96252e-06
-4.0517e-08
7.96711e-06
-4.07038e-08
7.97138e-06
-4.00615e-08
7.97537e-06
-3.90634e-08
7.97908e-06
-3.78847e-08
7.98252e-06
-3.65951e-08
7.98572e-06
-3.52545e-08
7.98869e-06
-3.39106e-08
7.99143e-06
-3.25905e-08
7.99398e-06
-3.13088e-08
7.99634e-06
-3.00723e-08
7.99853e-06
-2.88838e-08
-2.77393e-08
8.00056e-06
7.07144e-06
-1.59248e-09
7.07705e-06
-2.6336e-08
7.08196e-06
-3.63795e-08
7.08647e-06
-4.05222e-08
7.09142e-06
-4.38707e-08
7.09633e-06
-4.54275e-08
7.10086e-06
-4.52322e-08
7.10497e-06
-4.41746e-08
7.10869e-06
-4.27849e-08
7.11203e-06
-4.12258e-08
7.11501e-06
-3.95748e-08
7.11766e-06
-3.79016e-08
7.12e-06
-3.62562e-08
7.12208e-06
-3.46637e-08
7.1239e-06
-3.31386e-08
7.12552e-06
-3.16856e-08
7.12694e-06
-3.03056e-08
-2.8985e-08
7.12818e-06
6.29507e-06
5.84957e-09
6.30331e-06
-3.4574e-08
6.31e-06
-4.30771e-08
6.31612e-06
-4.66356e-08
6.322e-06
-4.97548e-08
6.32707e-06
-5.04927e-08
6.33123e-06
-4.93936e-08
6.33464e-06
-4.75919e-08
6.33743e-06
-4.55717e-08
6.33965e-06
-4.34439e-08
6.34135e-06
-4.12802e-08
6.34261e-06
-3.91552e-08
6.34347e-06
-3.71184e-08
6.34399e-06
-3.51875e-08
6.34423e-06
-3.33763e-08
6.34423e-06
-3.16847e-08
6.34404e-06
-3.01136e-08
-2.86368e-08
6.34369e-06
5.6101e-06
1.06497e-08
5.61835e-06
-4.28251e-08
5.62589e-06
-5.06189e-08
5.63325e-06
-5.39937e-08
5.63958e-06
-5.60824e-08
5.64401e-06
-5.49246e-08
5.64654e-06
-5.1928e-08
5.64752e-06
-4.85708e-08
5.64728e-06
-4.53275e-08
5.64607e-06
-4.22358e-08
5.6441e-06
-3.9313e-08
5.64154e-06
-3.65988e-08
5.63853e-06
-3.41092e-08
5.63519e-06
-3.18385e-08
5.63159e-06
-2.97786e-08
5.62783e-06
-2.79271e-08
5.624e-06
-2.62799e-08
-2.47572e-08
5.62012e-06
5.03203e-06
-1.90739e-08
5.03725e-06
-4.8046e-08
5.03796e-06
-5.13276e-08
5.03608e-06
-5.2117e-08
5.03236e-06
-5.23607e-08
5.02647e-06
-4.90357e-08
5.01841e-06
-4.3864e-08
5.00863e-06
-3.87968e-08
4.99767e-06
-3.43658e-08
4.98597e-06
-3.05374e-08
4.9739e-06
-2.72433e-08
4.96173e-06
-2.44292e-08
4.94965e-06
-2.20253e-08
4.93778e-06
-1.99709e-08
4.92621e-06
-1.82136e-08
4.91504e-06
-1.67509e-08
4.90437e-06
-1.56161e-08
-1.52712e-08
4.89489e-06
4.43748e-06
4.38943e-06
4.3381e-06
4.28598e-06
4.23362e-06
4.18459e-06
4.14072e-06
4.10193e-06
4.06756e-06
4.03702e-06
4.00978e-06
3.98535e-06
3.96333e-06
3.94336e-06
3.92514e-06
3.90839e-06
3.89277e-06
3.8775e-06
9.99898e-09
-1.00122e-08
2.28888e-08
-1.29184e-08
3.27877e-08
-9.91367e-09
3.80805e-08
-5.316e-09
3.84994e-08
-4.29243e-10
3.4432e-08
4.04686e-09
2.66919e-08
7.73247e-09
1.60948e-08
1.05786e-08
3.3711e-09
1.27181e-08
-1.10317e-08
1.43867e-08
-2.68179e-08
1.57821e-08
-4.38331e-08
1.7001e-08
-6.19615e-08
1.81236e-08
-8.11708e-08
1.91954e-08
-1.01412e-07
2.02345e-08
-1.2267e-07
2.1243e-08
-1.44895e-07
2.22181e-08
-1.68066e-07
2.31536e-08
-1.92119e-07
2.40448e-08
-2.17023e-07
2.48871e-08
-2.42712e-07
2.56789e-08
-2.69146e-07
2.64186e-08
-2.96263e-07
2.71074e-08
-3.24013e-07
2.77448e-08
-3.52355e-07
2.83313e-08
-3.81196e-07
2.88684e-08
-4.10546e-07
2.93515e-08
-4.40283e-07
2.97968e-08
-4.7047e-07
3.02061e-08
-5.01081e-07
3.06329e-08
-5.32214e-07
3.11413e-08
-5.64157e-07
3.18635e-08
-5.97025e-07
3.28509e-08
-6.31325e-07
3.41641e-08
-6.67072e-07
3.57125e-08
-7.03916e-07
3.67567e-08
-7.4298e-07
3.90356e-08
-7.85264e-07
4.23178e-08
-8.28007e-07
4.27338e-08
-8.75162e-07
4.72241e-08
-9.19913e-07
4.47733e-08
-9.55881e-07
3.59575e-08
-9.9469e-07
3.88189e-08
-1.03593e-06
4.12307e-08
-1.07952e-06
4.35895e-08
-1.12404e-06
4.45017e-08
-1.16847e-06
4.44221e-08
-1.21303e-06
4.45447e-08
-1.25761e-06
4.45717e-08
-1.30214e-06
4.45132e-08
-1.34652e-06
4.43779e-08
-1.39072e-06
4.41902e-08
-1.43469e-06
4.39621e-08
-1.4784e-06
4.37035e-08
-1.52183e-06
4.34212e-08
-1.56496e-06
4.31182e-08
-1.60775e-06
4.27976e-08
-1.65022e-06
4.24584e-08
-1.69232e-06
4.21018e-08
-1.73405e-06
4.17249e-08
-1.77538e-06
4.13281e-08
-1.81629e-06
4.09074e-08
-1.85675e-06
4.04631e-08
-1.89675e-06
3.99909e-08
-1.93624e-06
3.9491e-08
-1.9752e-06
3.89591e-08
-2.0136e-06
3.83958e-08
-2.0514e-06
3.77968e-08
-2.08856e-06
3.7163e-08
-2.12505e-06
3.64906e-08
-2.16083e-06
3.57806e-08
-2.19586e-06
3.50297e-08
-2.2301e-06
3.42393e-08
-2.26351e-06
3.34064e-08
-2.29603e-06
3.25327e-08
-2.32765e-06
3.16159e-08
-2.3583e-06
3.06575e-08
-2.38796e-06
2.96559e-08
-2.41657e-06
2.86128e-08
-2.44409e-06
2.75271e-08
-2.47049e-06
2.64003e-08
-2.49572e-06
2.52319e-08
-2.51974e-06
2.40233e-08
-2.54251e-06
2.27742e-08
-2.56399e-06
2.14858e-08
-2.58415e-06
2.01579e-08
-2.60294e-06
1.87909e-08
-2.62032e-06
1.73844e-08
-2.63626e-06
1.59379e-08
-2.65071e-06
1.44493e-08
-2.66362e-06
1.29159e-08
-2.67495e-06
1.13327e-08
-2.68465e-06
9.69327e-09
-2.69264e-06
7.98936e-09
-2.69885e-06
6.20936e-09
-2.70318e-06
4.33646e-09
-2.70554e-06
2.36267e-09
-2.7059e-06
3.51125e-10
-2.70439e-06
-1.50525e-09
-2.70123e-06
-3.16261e-09
-2.69648e-06
-4.75014e-09
-2.69016e-06
-6.31987e-09
-2.68227e-06
-7.88851e-09
-2.67281e-06
-9.46025e-09
-2.66178e-06
-1.10353e-08
-2.64917e-06
-1.26125e-08
-2.63498e-06
-1.41901e-08
-2.61921e-06
-1.57665e-08
-2.60187e-06
-1.73396e-08
-2.58297e-06
-1.89076e-08
-2.5625e-06
-2.04683e-08
-2.54048e-06
-2.20201e-08
-2.51692e-06
-2.35606e-08
-2.49183e-06
-2.50882e-08
-2.46523e-06
-2.66006e-08
-2.43713e-06
-2.80962e-08
-2.40756e-06
-2.95727e-08
-2.37653e-06
-3.10284e-08
-2.34407e-06
-3.24612e-08
-2.3102e-06
-3.38694e-08
-2.27494e-06
-3.52507e-08
-2.23834e-06
-3.66037e-08
-2.20041e-06
-3.79261e-08
-2.16119e-06
-3.92163e-08
-2.12072e-06
-4.04723e-08
-2.07903e-06
-4.16929e-08
-2.03615e-06
-4.28766e-08
-1.99212e-06
-4.40228e-08
-1.94699e-06
-4.51312e-08
-1.90079e-06
-4.62006e-08
-1.85356e-06
-4.72298e-08
-1.80533e-06
-4.82178e-08
-1.75617e-06
-4.91576e-08
-1.70612e-06
-5.00517e-08
-1.65521e-06
-5.09071e-08
-1.60349e-06
-5.172e-08
-1.551e-06
-5.2484e-08
-1.4978e-06
-5.31995e-08
-1.44393e-06
-5.38671e-08
-1.38944e-06
-5.44873e-08
-1.33438e-06
-5.506e-08
-1.27879e-06
-5.55852e-08
-1.22272e-06
-5.6063e-08
-1.16622e-06
-5.64937e-08
-1.10934e-06
-5.6878e-08
-1.05212e-06
-5.72164e-08
-9.94603e-07
-5.75097e-08
-9.36839e-07
-5.77589e-08
-8.78869e-07
-5.79651e-08
-8.20735e-07
-5.81296e-08
-7.62477e-07
-5.82539e-08
-7.04133e-07
-5.83392e-08
-6.45742e-07
-5.83874e-08
-5.87338e-07
-5.84001e-08
-5.28955e-07
-5.83792e-08
-4.70626e-07
-5.83264e-08
-4.12379e-07
-5.82438e-08
-3.54244e-07
-5.81328e-08
-2.96248e-07
-5.79944e-08
-2.38416e-07
-5.78292e-08
-1.80777e-07
-5.76382e-08
-1.23352e-07
-5.74238e-08
-6.61648e-08
-5.71863e-08
-9.31166e-09
-5.68523e-08
4.72124e-08
-5.6524e-08
1.03429e-07
-5.62161e-08
1.59273e-07
-5.58449e-08
2.14758e-07
-5.54846e-08
2.69905e-07
-5.51488e-08
3.24729e-07
-5.48244e-08
3.7922e-07
-5.4493e-08
4.33347e-07
-5.4128e-08
4.87033e-07
-5.3688e-08
5.40131e-07
-5.31e-08
5.92356e-07
-5.22274e-08
6.43135e-07
-5.07819e-08
6.91249e-07
-4.8117e-08
7.33715e-07
-4.24677e-08
7.63278e-07
-2.95658e-08
1.2936e-08
7.5034e-07
8.93338e-09
-1.89605e-08
1.27864e-08
-1.67944e-08
1.2043e-08
-9.18119e-09
8.11808e-09
-1.40336e-09
1.71053e-09
5.97143e-09
-6.94684e-09
1.26947e-08
-1.78111e-08
1.85916e-08
-3.08343e-08
2.3594e-08
-4.58809e-08
2.77607e-08
-6.27431e-08
3.12422e-08
-8.11837e-08
3.42192e-08
-1.01041e-07
3.68529e-08
-1.22187e-07
3.92653e-08
-1.44534e-07
4.15364e-08
-1.68016e-07
4.3712e-08
-1.92594e-07
4.58144e-08
-2.18234e-07
4.78527e-08
-2.44917e-07
4.98285e-08
-2.7262e-07
5.17415e-08
-3.01333e-07
5.35919e-08
-3.31043e-07
5.53821e-08
-3.61749e-07
5.7117e-08
-3.93453e-07
5.8805e-08
-4.2617e-07
6.04569e-08
-4.59928e-07
6.20851e-08
-4.94765e-07
6.37054e-08
-5.30742e-07
6.53334e-08
-5.67935e-07
6.6993e-08
-6.0643e-07
6.87164e-08
-6.46359e-07
7.05511e-08
-6.8775e-07
7.25462e-08
-7.30632e-07
7.47177e-08
-7.74819e-07
7.7041e-08
-8.20107e-07
7.94401e-08
-8.66218e-07
8.1808e-08
-9.13341e-07
8.38869e-08
-9.60302e-07
8.59507e-08
-1.00591e-06
8.79234e-08
-1.05219e-06
8.89908e-08
-1.09471e-06
8.97433e-08
-1.13825e-06
8.83145e-08
-1.18763e-06
8.53462e-08
-1.23367e-06
8.4868e-08
-1.27768e-06
8.52444e-08
-1.31991e-06
8.582e-08
-1.36131e-06
8.5897e-08
-1.40245e-06
8.55554e-08
-1.44303e-06
8.51212e-08
-1.4831e-06
8.4635e-08
-1.52269e-06
8.40987e-08
-1.56184e-06
8.35183e-08
-1.60056e-06
8.29016e-08
-1.63885e-06
8.2254e-08
-1.67673e-06
8.1579e-08
-1.71419e-06
8.08784e-08
-1.75123e-06
8.01518e-08
-1.78783e-06
7.93983e-08
-1.82399e-06
7.86153e-08
-1.85969e-06
7.78002e-08
-1.89492e-06
7.69491e-08
-1.92965e-06
7.60589e-08
-1.96387e-06
7.51252e-08
-1.99755e-06
7.41447e-08
-2.03068e-06
7.31131e-08
-2.06322e-06
7.20274e-08
-2.09514e-06
7.08836e-08
-2.12642e-06
6.96792e-08
-2.15704e-06
6.84107e-08
-2.18695e-06
6.70762e-08
-2.21614e-06
6.56727e-08
-2.24455e-06
6.4199e-08
-2.27218e-06
6.26527e-08
-2.29897e-06
6.10332e-08
-2.3249e-06
5.9339e-08
-2.34994e-06
5.75699e-08
-2.37405e-06
5.5725e-08
-2.39719e-06
5.38046e-08
-2.41934e-06
5.18085e-08
-2.44047e-06
4.97376e-08
-2.46053e-06
4.7592e-08
-2.4795e-06
4.53729e-08
-2.49735e-06
4.30809e-08
-2.51404e-06
4.07175e-08
-2.52955e-06
3.82835e-08
-2.54384e-06
3.57805e-08
-2.55689e-06
3.32094e-08
-2.56867e-06
3.05716e-08
-2.57915e-06
2.78679e-08
-2.58831e-06
2.50993e-08
-2.59613e-06
2.22667e-08
-2.60258e-06
1.93703e-08
-2.60766e-06
1.64112e-08
-2.61136e-06
1.33909e-08
-2.61368e-06
1.03128e-08
-2.61465e-06
7.18327e-09
-2.61433e-06
4.01714e-09
-2.61282e-06
8.49347e-10
-2.6102e-06
-2.26999e-09
-2.60636e-06
-5.34475e-09
-2.60111e-06
-8.41738e-09
-2.59436e-06
-1.15001e-08
-2.58608e-06
-1.45928e-08
-2.57628e-06
-1.76968e-08
-2.56493e-06
-2.0811e-08
-2.55203e-06
-2.3933e-08
-2.53758e-06
-2.70597e-08
-2.52159e-06
-3.01875e-08
-2.50404e-06
-3.33128e-08
-2.48495e-06
-3.64316e-08
-2.46432e-06
-3.954e-08
-2.44215e-06
-4.26343e-08
-2.41846e-06
-4.57103e-08
-2.39326e-06
-4.87643e-08
-2.36655e-06
-5.17924e-08
-2.33836e-06
-5.47904e-08
-2.3087e-06
-5.77547e-08
-2.27759e-06
-6.06813e-08
-2.24506e-06
-6.35664e-08
-2.21111e-06
-6.64062e-08
-2.17578e-06
-6.91969e-08
-2.1391e-06
-7.19347e-08
-2.10108e-06
-7.46159e-08
-2.06177e-06
-7.72367e-08
-2.02119e-06
-7.97935e-08
-1.97938e-06
-8.22828e-08
-1.93637e-06
-8.47014e-08
-1.8922e-06
-8.70465e-08
-1.84691e-06
-8.93165e-08
-1.80053e-06
-9.151e-08
-1.7531e-06
-9.36262e-08
-1.70467e-06
-9.5663e-08
-1.65527e-06
-9.76161e-08
-1.60495e-06
-9.94769e-08
-1.55375e-06
-1.01247e-07
-1.50172e-06
-1.02937e-07
-1.4489e-06
-1.04541e-07
-1.39533e-06
-1.06049e-07
-1.34106e-06
-1.07462e-07
-1.28615e-06
-1.0878e-07
-1.23063e-06
-1.10003e-07
-1.17456e-06
-1.11131e-07
-1.11798e-06
-1.12165e-07
-1.06093e-06
-1.13104e-07
-1.00348e-06
-1.1395e-07
-9.45648e-07
-1.14703e-07
-8.87497e-07
-1.15365e-07
-8.29067e-07
-1.15937e-07
-7.70402e-07
-1.16421e-07
-7.11545e-07
-1.16819e-07
-6.52538e-07
-1.17135e-07
-5.93419e-07
-1.1737e-07
-5.34229e-07
-1.17527e-07
-4.75003e-07
-1.17611e-07
-4.15777e-07
-1.17624e-07
-3.56584e-07
-1.17571e-07
-2.97455e-07
-1.17454e-07
-2.3842e-07
-1.17278e-07
-1.79505e-07
-1.17046e-07
-1.20737e-07
-1.16761e-07
-6.21385e-08
-1.16426e-07
-3.73599e-09
-1.1604e-07
5.44547e-08
-1.15614e-07
1.1242e-07
-1.15151e-07
1.70193e-07
-1.14626e-07
2.27715e-07
-1.14045e-07
2.84908e-07
-1.13409e-07
3.41806e-07
-1.12743e-07
3.98416e-07
-1.12095e-07
4.5474e-07
-1.11473e-07
5.10775e-07
-1.10859e-07
5.66502e-07
-1.10221e-07
6.21882e-07
-1.09508e-07
6.76833e-07
-1.0864e-07
7.31205e-07
-1.07473e-07
7.8472e-07
-1.05744e-07
8.36875e-07
-1.02938e-07
8.86662e-07
-9.79057e-08
9.32507e-07
-8.83134e-08
9.70949e-07
-6.80093e-08
-1.90232e-08
1.00291e-06
1.1827e-09
-2.01565e-08
-3.67663e-09
-1.19525e-08
-1.12847e-08
-1.58127e-09
-2.06483e-08
7.95205e-09
-3.13967e-08
1.67152e-08
-4.34412e-08
2.47332e-08
-5.68256e-08
3.19727e-08
-7.16463e-08
3.84096e-08
-8.79629e-08
4.40747e-08
-1.05783e-07
4.90582e-08
-1.25053e-07
5.34871e-08
-1.45699e-07
5.74949e-08
-1.67634e-07
6.11983e-08
-1.90788e-07
6.46873e-08
-2.15102e-07
6.80236e-08
-2.40538e-07
7.12469e-08
-2.67068e-07
7.438e-08
-2.9468e-07
7.7436e-08
-3.23364e-07
8.04227e-08
-3.53123e-07
8.33458e-08
-3.83955e-07
8.62114e-08
-4.15869e-07
8.90272e-08
-4.48869e-07
9.18027e-08
-4.82965e-07
9.45491e-08
-5.1816e-07
9.72788e-08
-5.54461e-07
1.00004e-07
-5.91862e-07
1.02736e-07
-6.30354e-07
1.05483e-07
-6.69883e-07
1.0825e-07
-7.10355e-07
1.11027e-07
-7.51599e-07
1.13794e-07
-7.93367e-07
1.16498e-07
-8.35383e-07
1.19062e-07
-8.77316e-07
1.21387e-07
-9.18875e-07
1.23368e-07
-9.59948e-07
1.24942e-07
-1.00022e-06
1.26208e-07
-1.0395e-06
1.2716e-07
-1.07805e-06
1.27519e-07
-1.11563e-06
1.27319e-07
-1.15368e-06
1.26367e-07
-1.1932e-06
1.24882e-07
-1.23213e-06
1.23807e-07
-1.27001e-06
1.23142e-07
-1.30684e-06
1.22649e-07
-1.34295e-06
1.2201e-07
-1.37866e-06
1.21257e-07
-1.414e-06
1.2046e-07
-1.449e-06
1.19632e-07
-1.48368e-06
1.18773e-07
-1.51805e-06
1.17886e-07
-1.55213e-06
1.16973e-07
-1.58591e-06
1.16033e-07
-1.61939e-06
1.15064e-07
-1.65258e-06
1.14064e-07
-1.68546e-06
1.1303e-07
-1.71802e-06
1.11957e-07
-1.75025e-06
1.1084e-07
-1.78212e-06
1.09675e-07
-1.81363e-06
1.08455e-07
-1.84475e-06
1.07176e-07
-1.87546e-06
1.05831e-07
-1.90573e-06
1.04416e-07
-1.93554e-06
1.02925e-07
-1.96487e-06
1.01353e-07
-1.99368e-06
9.96956e-08
-2.02195e-06
9.79485e-08
-2.04965e-06
9.61075e-08
-2.07674e-06
9.41695e-08
-2.1032e-06
9.21312e-08
-2.12899e-06
8.999e-08
-2.15408e-06
8.77438e-08
-2.17844e-06
8.53908e-08
-2.20203e-06
8.29296e-08
-2.22482e-06
8.03594e-08
-2.24677e-06
7.76797e-08
-2.26786e-06
7.48904e-08
-2.28804e-06
7.19917e-08
-2.30729e-06
6.89845e-08
-2.32556e-06
6.58695e-08
-2.34284e-06
6.26482e-08
-2.35908e-06
5.9322e-08
-2.37425e-06
5.58929e-08
-2.38833e-06
5.23628e-08
-2.40128e-06
4.87341e-08
-2.41308e-06
4.50092e-08
-2.4237e-06
4.11906e-08
-2.43311e-06
3.72814e-08
-2.44129e-06
3.32846e-08
-2.44823e-06
2.92037e-08
-2.4539e-06
2.50429e-08
-2.4583e-06
2.08072e-08
-2.46141e-06
1.65034e-08
-2.46324e-06
1.21404e-08
-2.46378e-06
7.72985e-09
-2.46306e-06
3.28823e-09
-2.46104e-06
-1.16341e-09
-2.4577e-06
-5.61291e-09
-2.45297e-06
-1.00776e-08
-2.44681e-06
-1.45779e-08
-2.43919e-06
-1.91131e-08
-2.43011e-06
-2.36769e-08
-2.41954e-06
-2.82642e-08
-2.40748e-06
-3.28698e-08
-2.39393e-06
-3.74886e-08
-2.37887e-06
-4.21151e-08
-2.36232e-06
-4.67439e-08
-2.34426e-06
-5.1369e-08
-2.32471e-06
-5.5985e-08
-2.30366e-06
-6.05859e-08
-2.28113e-06
-6.51659e-08
-2.25712e-06
-6.97193e-08
-2.23165e-06
-7.42401e-08
-2.20472e-06
-7.87226e-08
-2.17635e-06
-8.31609e-08
-2.14655e-06
-8.75493e-08
-2.11535e-06
-9.1882e-08
-2.08276e-06
-9.61534e-08
-2.04881e-06
-1.00358e-07
-2.01352e-06
-1.0449e-07
-1.97691e-06
-1.08543e-07
-1.93901e-06
-1.12513e-07
-1.89986e-06
-1.16394e-07
-1.85947e-06
-1.2018e-07
-1.81788e-06
-1.23867e-07
-1.77514e-06
-1.27448e-07
-1.73126e-06
-1.30921e-07
-1.6863e-06
-1.34281e-07
-1.64028e-06
-1.37528e-07
-1.59324e-06
-1.40659e-07
-1.54523e-06
-1.43672e-07
-1.49629e-06
-1.4656e-07
-1.44645e-06
-1.49316e-07
-1.39576e-06
-1.51938e-07
-1.34426e-06
-1.54436e-07
-1.29199e-06
-1.56804e-07
-1.23901e-06
-1.59034e-07
-1.18535e-06
-1.61122e-07
-1.13106e-06
-1.63069e-07
-1.07618e-06
-1.64875e-07
-1.02077e-06
-1.66541e-07
-9.64873e-07
-1.68066e-07
-9.08525e-07
-1.6945e-07
-8.51777e-07
-1.70696e-07
-7.94674e-07
-1.71804e-07
-7.3726e-07
-1.72777e-07
-6.79579e-07
-1.73616e-07
-6.21673e-07
-1.74325e-07
-5.63584e-07
-1.74907e-07
-5.05353e-07
-1.75365e-07
-4.47018e-07
-1.75704e-07
-3.88616e-07
-1.75927e-07
-3.30185e-07
-1.76041e-07
-2.71758e-07
-1.76051e-07
-2.13366e-07
-1.75961e-07
-1.5504e-07
-1.75779e-07
-9.6809e-08
-1.75509e-07
-3.86969e-08
-1.75158e-07
1.92725e-08
-1.7473e-07
7.70762e-08
-1.74229e-07
1.34697e-07
-1.7366e-07
1.92117e-07
-1.73034e-07
2.49324e-07
-1.72357e-07
3.06326e-07
-1.71628e-07
3.63117e-07
-1.70836e-07
4.19683e-07
-1.69976e-07
4.76021e-07
-1.69081e-07
5.32118e-07
-1.68192e-07
5.87962e-07
-1.67318e-07
6.43541e-07
-1.66438e-07
6.98831e-07
-1.65511e-07
7.53789e-07
-1.64467e-07
8.08335e-07
-1.63187e-07
8.62331e-07
-1.6147e-07
9.15537e-07
-1.58949e-07
9.67545e-07
-1.54947e-07
1.01772e-06
-1.4808e-07
1.06519e-06
-1.35782e-07
1.10942e-06
-1.12246e-07
-6.45788e-08
1.15498e-06
-6.41993e-09
-1.37494e-08
-1.72223e-08
-1.1649e-09
-2.9435e-08
1.06244e-08
-4.25271e-08
2.10374e-08
-5.63805e-08
3.05646e-08
-7.10201e-08
3.93677e-08
-8.65326e-08
4.74825e-08
-1.03039e-07
5.49123e-08
-1.20644e-07
6.16777e-08
-1.39423e-07
6.78336e-08
-1.59401e-07
7.34635e-08
-1.80574e-07
7.86648e-08
-2.02909e-07
8.3532e-08
-2.26371e-07
8.81467e-08
-2.5092e-07
9.25721e-08
-2.76529e-07
9.68536e-08
-3.03171e-07
1.01022e-07
-3.30834e-07
1.05096e-07
-3.595e-07
1.09088e-07
-3.89163e-07
1.13006e-07
-4.19806e-07
1.16854e-07
-4.51417e-07
1.20635e-07
-4.83964e-07
1.24351e-07
-5.17418e-07
1.28001e-07
-5.51721e-07
1.31583e-07
-5.86809e-07
1.35092e-07
-6.22586e-07
1.38516e-07
-6.58935e-07
1.41837e-07
-6.95713e-07
1.4503e-07
-7.3273e-07
1.48056e-07
-7.69806e-07
1.50873e-07
-8.06712e-07
1.53422e-07
-8.43286e-07
1.5564e-07
-8.79364e-07
1.57469e-07
-9.1487e-07
1.58871e-07
-9.49796e-07
1.5984e-07
-9.84064e-07
1.60455e-07
-1.0177e-06
1.60759e-07
-1.05088e-06
1.60683e-07
-1.08378e-06
1.60215e-07
-1.1168e-06
1.59388e-07
-1.15018e-06
1.58285e-07
-1.1835e-06
1.57143e-07
-1.21643e-06
1.56078e-07
-1.24886e-06
1.55087e-07
-1.28093e-06
1.54091e-07
-1.31275e-06
1.53075e-07
-1.34434e-06
1.52048e-07
-1.37572e-06
1.51007e-07
-1.4069e-06
1.49946e-07
-1.43787e-06
1.48863e-07
-1.46866e-06
1.47753e-07
-1.49924e-06
1.46612e-07
-1.52961e-06
1.45436e-07
-1.55977e-06
1.44219e-07
-1.5897e-06
1.42955e-07
-1.61938e-06
1.41638e-07
-1.6488e-06
1.4026e-07
-1.67794e-06
1.38815e-07
-1.70679e-06
1.37296e-07
-1.73531e-06
1.35694e-07
-1.76348e-06
1.34004e-07
-1.79128e-06
1.32218e-07
-1.81869e-06
1.3033e-07
-1.84567e-06
1.28334e-07
-1.8722e-06
1.26223e-07
-1.89824e-06
1.23993e-07
-1.92378e-06
1.21639e-07
-1.94876e-06
1.19156e-07
-1.97317e-06
1.16541e-07
-1.99697e-06
1.13791e-07
-2.02013e-06
1.10902e-07
-2.04261e-06
1.07872e-07
-2.06438e-06
1.047e-07
-2.08541e-06
1.01386e-07
-2.10566e-06
9.79273e-08
-2.12509e-06
9.43252e-08
-2.14368e-06
9.05799e-08
-2.16138e-06
8.66923e-08
-2.17818e-06
8.26639e-08
-2.19402e-06
7.84965e-08
-2.20889e-06
7.41923e-08
-2.22275e-06
6.97539e-08
-2.23557e-06
6.51845e-08
-2.24733e-06
6.04872e-08
-2.25798e-06
5.5666e-08
-2.26751e-06
5.07248e-08
-2.2759e-06
4.56682e-08
-2.28312e-06
4.05011e-08
-2.28914e-06
3.52295e-08
-2.29396e-06
2.98595e-08
-2.29755e-06
2.43986e-08
-2.2999e-06
1.88556e-08
-2.301e-06
1.32404e-08
-2.30083e-06
7.56441e-09
-2.29939e-06
1.83981e-09
-2.29663e-06
-3.92221e-09
-2.29252e-06
-9.71921e-09
-2.28704e-06
-1.5561e-08
-2.28016e-06
-2.14552e-08
-2.27188e-06
-2.73984e-08
-2.26217e-06
-3.33827e-08
-2.25103e-06
-3.94006e-08
-2.23846e-06
-4.54443e-08
-2.22444e-06
-5.15064e-08
-2.20898e-06
-5.75793e-08
-2.19207e-06
-6.36557e-08
-2.17371e-06
-6.97277e-08
-2.15391e-06
-7.57881e-08
-2.13266e-06
-8.18289e-08