/*--------------------------------*- C++ -*----------------------------------*\
| =========                 |                                                 |
| \\      /  F ield         | OpenFOAM: The Open Source CFD Toolbox           |
|  \\    /   O peration     | Version:  5.x                                   |
|   \\  /    A nd           | Web:      www.OpenFOAM.org                      |
|    \\/     M anipulation  |                                                 |
\*---------------------------------------------------------------------------*/
FoamFile
{
    version     2.0;
    format      ascii;
    class       volVectorField;
    location    "500";
    object      U;
}
// * * * * * * * * * * * * * * * * * * * * * * * * * * * * * * * * * * * * * //

dimensions      [0 1 -1 0 0 0 0];

internalField   nonuniform List<vector> 
12225
(
(9.85176 -0.900708 0)
(9.65342 -0.750058 0)
(9.43307 -0.433316 0)
(9.1929 -0.223169 0)
(8.96716 -0.106254 0)
(8.76916 -0.0453927 0)
(8.59791 -0.0146995 0)
(8.453 0.000912145 0)
(8.32973 0.00857483 0)
(8.22599 0.0124748 0)
(8.1376 0.014258 0)
(8.06141 0.0151172 0)
(7.99514 0.0155053 0)
(7.93682 0.0154707 0)
(7.88463 0.0159829 0)
(7.83978 0.0162893 0)
(7.78838 0.0190279 0)
(7.78026 0.00644081 0)
(10.0563 0.237267 0)
(10.1254 0.34202 0)
(10.1232 0.273664 0)
(10.0868 0.194693 0)
(10.0425 0.139987 0)
(9.99365 0.104554 0)
(9.93873 0.0814774 0)
(9.87756 0.0659166 0)
(9.81378 0.0550934 0)
(9.74913 0.0470685 0)
(9.68541 0.0409816 0)
(9.62386 0.0362427 0)
(9.56494 0.0323984 0)
(9.50921 0.0293697 0)
(9.45636 0.0265349 0)
(9.4075 0.0249924 0)
(9.36015 0.0214437 0)
(9.32245 0.0292193 0)
(10.0031 0.0593795 0)
(10.0294 0.0556502 0)
(10.0556 0.0312136 0)
(10.0707 0.0303041 0)
(10.0782 0.0390114 0)
(10.0796 0.0457658 0)
(10.0747 0.0491605 0)
(10.0636 0.0504843 0)
(10.0484 0.0506077 0)
(10.0298 0.0500274 0)
(10.0091 0.0490541 0)
(9.98674 0.0479086 0)
(9.96345 0.0467046 0)
(9.93971 0.0455423 0)
(9.91576 0.0443378 0)
(9.89239 0.0435594 0)
(9.86946 0.0421881 0)
(9.8478 0.0421777 0)
(9.99735 0.0106189 0)
(10.0097 0.0259855 0)
(10.0341 0.0372102 0)
(10.0523 0.0490866 0)
(10.0647 0.0569881 0)
(10.0741 0.0597964 0)
(10.0806 0.0598533 0)
(10.084 0.058978 0)
(10.0849 0.0577997 0)
(10.0839 0.0564965 0)
(10.0814 0.0551263 0)
(10.0776 0.0537901 0)
(10.0729 0.0524804 0)
(10.0674 0.0512616 0)
(10.0614 0.0500268 0)
(10.0552 0.0490371 0)
(10.0489 0.0477193 0)
(10.0424 0.0465334 0)
(9.99929 0.00694626 0)
(10.0085 0.0318847 0)
(10.0269 0.0448238 0)
(10.0415 0.0509127 0)
(10.0524 0.0544412 0)
(10.0626 0.055924 0)
(10.0715 0.0561258 0)
(10.0786 0.0558009 0)
(10.0841 0.0552333 0)
(10.0884 0.0545082 0)
(10.0917 0.0536701 0)
(10.0942 0.0527989 0)
(10.0959 0.0519056 0)
(10.0972 0.051035 0)
(10.098 0.0501242 0)
(10.0986 0.0492804 0)
(10.099 0.048223 0)
(10.0993 0.0470485 0)
(10.0004 0.00915269 0)
(10.0081 0.0311567 0)
(10.0222 0.0412294 0)
(10.0344 0.0455984 0)
(10.0444 0.0491313 0)
(10.054 0.0514957 0)
(10.063 0.0525389 0)
(10.0708 0.0528044 0)
(10.0775 0.0526748 0)
(10.0833 0.0523001 0)
(10.0885 0.0517547 0)
(10.093 0.051115 0)
(10.097 0.0504107 0)
(10.1006 0.0496722 0)
(10.104 0.0488674 0)
(10.1071 0.0480301 0)
(10.11 0.0470282 0)
(10.1128 0.0458134 0)
(10.0005 0.00882368 0)
(10.0068 0.0264599 0)
(10.0183 0.0359887 0)
(10.0293 0.0410672 0)
(10.0386 0.0450751 0)
(10.0475 0.0477949 0)
(10.056 0.049125 0)
(10.0637 0.0496114 0)
(10.0705 0.0496732 0)
(10.0767 0.0494716 0)
(10.0824 0.0490807 0)
(10.0876 0.0485649 0)
(10.0925 0.0479605 0)
(10.097 0.0472875 0)
(10.1013 0.046531 0)
(10.1053 0.0456924 0)
(10.1092 0.0447028 0)
(10.113 0.0434996 0)
(10.0004 0.00778513 0)
(10.0057 0.0228981 0)
(10.0156 0.0324452 0)
(10.0256 0.0379105 0)
(10.0344 0.0418598 0)
(10.0428 0.044543 0)
(10.0509 0.0459761 0)
(10.0583 0.0466052 0)
(10.065 0.0467999 0)
(10.0712 0.0467133 0)
(10.077 0.0464198 0)
(10.0824 0.0459798 0)
(10.0875 0.0454325 0)
(10.0922 0.0447947 0)
(10.0968 0.0440603 0)
(10.1012 0.043221 0)
(10.1053 0.0422357 0)
(10.1094 0.0410602 0)
(10.0004 0.00692604 0)
(10.005 0.0203306 0)
(10.0135 0.0295166 0)
(10.0227 0.0350108 0)
(10.031 0.0388593 0)
(10.0389 0.0415254 0)
(10.0466 0.0430593 0)
(10.0538 0.043811 0)
(10.0604 0.0441083 0)
(10.0665 0.044106 0)
(10.0723 0.0438817 0)
(10.0777 0.0434948 0)
(10.0828 0.0429851 0)
(10.0877 0.0423697 0)
(10.0923 0.0416477 0)
(10.0967 0.0408107 0)
(10.101 0.0398317 0)
(10.1051 0.0386849 0)
(10.0004 0.00612548 0)
(10.0043 0.0178909 0)
(10.0115 0.0264236 0)
(10.0198 0.0318082 0)
(10.0276 0.0355563 0)
(10.0351 0.0381937 0)
(10.0423 0.0398036 0)
(10.0492 0.0406565 0)
(10.0556 0.0410397 0)
(10.0616 0.0411086 0)
(10.0673 0.0409431 0)
(10.0727 0.0406008 0)
(10.0777 0.0401213 0)
(10.0826 0.0395234 0)
(10.0872 0.038811 0)
(10.0917 0.037979 0)
(10.0959 0.0370113 0)
(10.1 0.0359 0)
(10.0004 0.00533441 0)
(10.0036 0.015485 0)
(10.0097 0.0232165 0)
(10.0171 0.0283857 0)
(10.0243 0.0319959 0)
(10.0313 0.0345554 0)
(10.0381 0.0361919 0)
(10.0447 0.037115 0)
(10.0508 0.0375651 0)
(10.0567 0.0376916 0)
(10.0622 0.0375753 0)
(10.0674 0.037271 0)
(10.0724 0.0368176 0)
(10.0772 0.0362364 0)
(10.0818 0.0355358 0)
(10.0861 0.0347159 0)
(10.0903 0.0337693 0)
(10.0942 0.0327034 0)
(10.0003 0.00454405 0)
(10.003 0.0131423 0)
(10.0082 0.0199693 0)
(10.0146 0.0247836 0)
(10.0211 0.0281838 0)
(10.0276 0.0306072 0)
(10.034 0.0322139 0)
(10.0402 0.0331687 0)
(10.0461 0.0336619 0)
(10.0517 0.0338297 0)
(10.0571 0.033751 0)
(10.0622 0.0334786 0)
(10.067 0.0330494 0)
(10.0717 0.0324876 0)
(10.0761 0.0318048 0)
(10.0803 0.0310076 0)
(10.0844 0.0300952 0)
(10.0882 0.0290856 0)
(10.0003 0.00376679 0)
(10.0025 0.0108841 0)
(10.0068 0.0167223 0)
(10.0123 0.0210316 0)
(10.0183 0.0241313 0)
(10.0242 0.0263555 0)
(10.0301 0.0278698 0)
(10.0359 0.0288063 0)
(10.0415 0.0293101 0)
(10.0469 0.0294972 0)
(10.0521 0.0294421 0)
(10.057 0.0291938 0)
(10.0617 0.0287883 0)
(10.0662 0.0282497 0)
(10.0704 0.0275942 0)
(10.0745 0.0268316 0)
(10.0784 0.0259684 0)
(10.0821 0.0250264 0)
(10.0002 0.00301088 0)
(10.0021 0.00870697 0)
(10.0057 0.0134948 0)
(10.0104 0.0171628 0)
(10.0157 0.0198588 0)
(10.0211 0.0218098 0)
(10.0266 0.0231609 0)
(10.032 0.0240184 0)
(10.0373 0.02449 0)
(10.0424 0.0246679 0)
(10.0473 0.0246178 0)
(10.052 0.0243842 0)
(10.0565 0.0240002 0)
(10.0609 0.0234896 0)
(10.065 0.0228702 0)
(10.0689 0.0221552 0)
(10.0726 0.0213539 0)
(10.0761 0.0204915 0)
(10.0002 0.00227676 0)
(10.0018 0.0065943 0)
(10.0048 0.0102878 0)
(10.0089 0.0131985 0)
(10.0135 0.0153813 0)
(10.0185 0.0169733 0)
(10.0235 0.0180837 0)
(10.0285 0.0187946 0)
(10.0335 0.0191821 0)
(10.0383 0.0193153 0)
(10.043 0.0192465 0)
(10.0475 0.0190142 0)
(10.0518 0.0186465 0)
(10.0559 0.018166 0)
(10.0599 0.0175894 0)
(10.0636 0.0169319 0)
(10.0672 0.0162028 0)
(10.0706 0.0154284 0)
(10.0002 0.00155704 0)
(10.0015 0.0045157 0)
(10.0041 0.00707459 0)
(10.0077 0.00912777 0)
(10.0118 0.0106879 0)
(10.0163 0.0118273 0)
(10.0209 0.0126155 0)
(10.0256 0.013108 0)
(10.0303 0.0133547 0)
(10.0348 0.0134016 0)
(10.0393 0.0132863 0)
(10.0436 0.0130376 0)
(10.0477 0.0126778 0)
(10.0516 0.0122253 0)
(10.0554 0.011695 0)
(10.059 0.0111 0)
(10.0624 0.01045 0)
(10.0656 0.00976793 0)
(10.0001 0.000834684 0)
(10.0013 0.00242069 0)
(10.0036 0.0037938 0)
(10.0068 0.00489752 0)
(10.0106 0.00572999 0)
(10.0147 0.00632156 0)
(10.019 0.00670442 0)
(10.0234 0.00690676 0)
(10.0278 0.00695394 0)
(10.0322 0.00687062 0)
(10.0364 0.00667736 0)
(10.0405 0.00639175 0)
(10.0444 0.00602764 0)
(10.0482 0.00559759 0)
(10.0518 0.00511193 0)
(10.0553 0.00458083 0)
(10.0585 0.00401131 0)
(10.0617 0.00342233 0)
(10.0001 0.000125143 0)
(10.0012 0.000358068 0)
(10.0034 0.000541862 0)
(10.0064 0.00066524 0)
(10.01 0.000726983 0)
(10.014 0.000727099 0)
(10.0181 0.000664664 0)
(10.0223 0.000540207 0)
(10.0266 0.000357252 0)
(10.0307 0.000119313 0)
(10.0348 -0.000169207 0)
(10.0388 -0.000504485 0)
(10.0426 -0.000881318 0)
(10.0463 -0.00129526 0)
(10.0498 -0.0017407 0)
(10.0531 -0.00221284 0)
(10.0563 -0.00270715 0)
(10.0593 -0.00321033 0)
(10.0001 -0.000530513 0)
(10.0012 -0.00155282 0)
(10.0034 -0.0024819 0)
(10.0065 -0.00327871 0)
(10.0101 -0.00393676 0)
(10.0141 -0.00448519 0)
(10.0182 -0.00495928 0)
(10.0224 -0.00538403 0)
(10.0266 -0.00577697 0)
(10.0307 -0.00615379 0)
(10.0348 -0.00652661 0)
(10.0386 -0.00690367 0)
(10.0424 -0.00728929 0)
(10.046 -0.00768584 0)
(10.0494 -0.00809373 0)
(10.0527 -0.0085122 0)
(10.0558 -0.00894046 0)
(10.0588 -0.00936893 0)
(10.0001 -0.00113407 0)
(10.0013 -0.00332252 0)
(10.0036 -0.00528818 0)
(10.0069 -0.00691854 0)
(10.0107 -0.00820409 0)
(10.0148 -0.00921941 0)
(10.0191 -0.0100371 0)
(10.0233 -0.0107029 0)
(10.0276 -0.0112557 0)
(10.0318 -0.0117317 0)
(10.0358 -0.01216 0)
(10.0397 -0.0125585 0)
(10.0434 -0.01294 0)
(10.047 -0.0133122 0)
(10.0504 -0.013681 0)
(10.0537 -0.0140485 0)
(10.0567 -0.0144172 0)
(10.0596 -0.0147803 0)
(10.0001 -0.00170566 0)
(10.0014 -0.00503718 0)
(10.004 -0.00802398 0)
(10.0076 -0.0104146 0)
(10.0118 -0.0122255 0)
(10.0161 -0.013624 0)
(10.0206 -0.0147201 0)
(10.025 -0.0155694 0)
(10.0294 -0.0162303 0)
(10.0336 -0.0167639 0)
(10.0377 -0.0172146 0)
(10.0416 -0.017611 0)
(10.0454 -0.0179711 0)
(10.049 -0.0183092 0)
(10.0524 -0.0186336 0)
(10.0556 -0.0189504 0)
(10.0587 -0.0192626 0)
(10.0616 -0.0195668 0)
(10.0001 -0.00223827 0)
(10.0015 -0.00673691 0)
(10.0044 -0.0107904 0)
(10.0086 -0.013883 0)
(10.0132 -0.0161146 0)
(10.0179 -0.0178021 0)
(10.0226 -0.0190948 0)
(10.0272 -0.0200583 0)
(10.0318 -0.0207769 0)
(10.0361 -0.0213326 0)
(10.0403 -0.0217801 0)
(10.0443 -0.0221534 0)
(10.048 -0.0224777 0)
(10.0516 -0.0227711 0)
(10.055 -0.0230458 0)
(10.0582 -0.0233089 0)
(10.0613 -0.0235653 0)
(10.0642 -0.0238122 0)
(10.0001 -0.00271465 0)
(10.0015 -0.0084586 0)
(10.0049 -0.0135863 0)
(10.0098 -0.0172959 0)
(10.0149 -0.0199172 0)
(10.02 -0.0218671 0)
(10.025 -0.023276 0)
(10.0299 -0.0242559 0)
(10.0346 -0.0249578 0)
(10.039 -0.0254891 0)
(10.0433 -0.0259045 0)
(10.0473 -0.0262375 0)
(10.0511 -0.0265164 0)
(10.0547 -0.0267618 0)
(10.0582 -0.0269871 0)
(10.0614 -0.0271997 0)
(10.0645 -0.0274046 0)
(10.0673 -0.0276003 0)
(10 -0.00308688 0)
(10.0014 -0.0105339 0)
(10.0055 -0.016561 0)
(10.0111 -0.020451 0)
(10.0168 -0.0233574 0)
(10.0222 -0.0256534 0)
(10.0276 -0.0272285 0)
(10.0328 -0.0282151 0)
(10.0377 -0.0288653 0)
(10.0423 -0.0293316 0)
(10.0466 -0.0296761 0)
(10.0507 -0.0299366 0)
(10.0546 -0.0301452 0)
(10.0583 -0.0303243 0)
(10.0617 -0.0304867 0)
(10.0649 -0.0306396 0)
(10.068 -0.0307862 0)
(10.0708 -0.0309244 0)
(9.9998 -0.00276789 0)
(10.0009 -0.0134094 0)
(10.006 -0.0207668 0)
(10.0125 -0.0241974 0)
(10.0185 -0.0267265 0)
(10.0244 -0.0290054 0)
(10.0304 -0.030655 0)
(10.036 -0.0317041 0)
(10.0413 -0.0323904 0)
(10.0461 -0.0328579 0)
(10.0506 -0.0331707 0)
(10.0548 -0.0333775 0)
(10.0586 -0.0335201 0)
(10.0622 -0.0336266 0)
(10.0656 -0.0337135 0)
(10.0687 -0.0337899 0)
(10.0715 -0.0338607 0)
(10.0742 -0.0339239 0)
(9.99853 0.000144477 0)
(9.9983 -0.0138639 0)
(10.0058 -0.024779 0)
(10.0142 -0.0296781 0)
(10.021 -0.0321227 0)
(10.0276 -0.0335987 0)
(10.0342 -0.0344533 0)
(10.0405 -0.0349832 0)
(10.0461 -0.0353668 0)
(10.051 -0.035639 0)
(10.0555 -0.035807 0)
(10.0594 -0.0358969 0)
(10.063 -0.0359381 0)
(10.0661 -0.0359507 0)
(10.0688 -0.0359483 0)
(10.0713 -0.0359396 0)
(10.0734 -0.035928 0)
(10.0753 -0.0359085 0)
(9.99503 0.00203574 0)
(9.99235 -0.00672368 0)
(10.004 -0.0182512 0)
(10.0171 -0.0293102 0)
(10.0269 -0.0369718 0)
(10.0352 -0.0405521 0)
(10.0424 -0.0416026 0)
(10.0485 -0.0416413 0)
(10.0534 -0.041344 0)
(10.0573 -0.0409012 0)
(10.0604 -0.0403912 0)
(10.0628 -0.0398707 0)
(10.0644 -0.0393755 0)
(10.0655 -0.0389172 0)
(10.0661 -0.0385033 0)
(10.0663 -0.0381341 0)
(10.0661 -0.0378074 0)
(10.0657 -0.0374903 0)
(9.99445 -0.0269587 0)
(9.99758 -0.0202555 0)
(10.0114 -0.00242685 0)
(10.0263 -0.00196647 0)
(10.0387 -0.0109767 0)
(10.0484 -0.019567 0)
(10.0548 -0.0254939 0)
(10.0579 -0.0294634 0)
(10.0584 -0.0321018 0)
(10.057 -0.033747 0)
(10.0541 -0.0346766 0)
(10.05 -0.0351354 0)
(10.045 -0.0352972 0)
(10.0393 -0.0352738 0)
(10.0331 -0.035149 0)
(10.0265 -0.0349788 0)
(10.0197 -0.0348214 0)
(10.0128 -0.0346221 0)
(10.0234 -0.168307 0)
(10.0674 -0.267754 0)
(10.0785 -0.232372 0)
(10.0721 -0.176483 0)
(10.0639 -0.133724 0)
(10.0548 -0.103836 0)
(10.0414 -0.0828519 0)
(10.0234 -0.0681994 0)
(10.0024 -0.0579465 0)
(9.9795 -0.0505555 0)
(9.95562 -0.0450332 0)
(9.93129 -0.0407808 0)
(9.90698 -0.0374328 0)
(9.88297 -0.0347348 0)
(9.85951 -0.0325315 0)
(9.83672 -0.0307392 0)
(9.81488 -0.0293242 0)
(9.79399 -0.0285596 0)
(9.94528 0.650371 0)
(9.89251 0.581565 0)
(9.80532 0.367771 0)
(9.68412 0.213308 0)
(9.5585 0.119103 0)
(9.44256 0.0645641 0)
(9.33876 0.033406 0)
(9.24633 0.015448 0)
(9.16426 0.00494752 0)
(9.0916 -0.00128669 0)
(9.02698 -0.00500876 0)
(8.96922 -0.00725845 0)
(8.91723 -0.00861657 0)
(8.87026 -0.00945626 0)
(8.82751 -0.0099683 0)
(8.78843 -0.0103252 0)
(8.7522 -0.0106526 0)
(8.71848 -0.0113096 0)
(0.00415951 -0.0096926 0)
(0.015079 -0.0164074 0)
(0.0251678 -0.0150472 0)
(0.0320946 -0.00985461 0)
(0.0349024 -0.00341148 0)
(0.0331681 0.00270905 0)
(0.0277673 0.00763195 -3.93995e-19)
(0.0195033 0.0111542 3.7168e-19)
(0.00904373 0.0134788 0)
(-0.00308424 0.0149477 3.13981e-19)
(-0.0165346 0.015919 0)
(-0.0311204 0.0166696 0)
(-0.0467448 0.0173585 0)
(-0.0633516 0.0180493 -1.72821e-19)
(-0.0809123 0.018755 0)
(-0.0994001 0.0194661 0)
(-0.118792 0.0201669 1.24804e-19)
(-0.139053 0.0208414 0)
(-0.160153 0.0214767 0)
(-0.182047 0.0220649 0)
(-0.204693 0.0226009 -9.11553e-20)
(-0.228048 0.0230833 0)
(-0.252064 0.0235116 -8.07528e-20)
(-0.276696 0.023884 0)
(-0.301897 0.0241973 0)
(-0.327615 0.0244489 -6.96363e-20)
(-0.353804 0.0246344 0)
(-0.380412 0.0247794 6.43407e-20)
(-0.407417 0.0249269 0)
(-0.43483 0.0252327 -6.03144e-20)
(-0.462703 0.0259724 0)
(-0.491197 0.027568 0)
(-0.52049 0.0301708 0)
(-0.551004 0.034257 0)
(-0.582624 0.0398639 0)
(-0.616157 0.0449867 5.27105e-20)
(-0.650764 0.0546605 0)
(-0.685596 0.0658401 -1.03251e-19)
(-0.727743 0.0673752 0)
(-0.767182 0.0799279 1.10128e-19)
(-0.804548 0.0616043 0)
(-0.847447 0.0192717 0)
(-0.881116 0.0207874 -1.31243e-19)
(-0.917323 0.0270104 0)
(-0.954751 0.0339017 -1.22693e-19)
(-0.995781 0.0358051 1.18939e-19)
(-1.03702 0.0349624 0)
(-1.07785 0.0349965 1.12047e-19)
(-1.11895 0.0349265 1.08916e-19)
(-1.16008 0.0347717 0)
(-1.20118 0.0345206 0)
(-1.2422 0.0342206 0)
(-1.28308 0.0338834 0)
(-1.32379 0.033524 0)
(-1.36433 0.0331484 -9.37213e-20)
(-1.40466 0.032761 0)
(-1.44477 0.0323646 8.97363e-20)
(-1.48464 0.0319592 0)
(-1.52425 0.031546 0)
(-1.5636 0.031123 -8.44909e-20)
(-1.60266 0.0306907 0)
(-1.64141 0.0302465 8.13932e-20)
(-1.67983 0.0297905 0)
(-1.71791 0.0293199 0)
(-1.7556 0.0288349 0)
(-1.79288 0.0283327 -7.59435e-20)
(-1.82973 0.0278139 0)
(-1.86612 0.0272757 0)
(-1.902 0.0267189 -7.23655e-20)
(-1.93735 0.0261412 0)
(-1.97213 0.0255437 -7.01671e-20)
(-2.00631 0.0249243 0)
(-2.03984 0.0242844 0)
(-2.07269 0.0236223 0)
(-2.10482 0.0229393 6.61119e-20)
(-2.13619 0.0222345 0)
(-2.16675 0.0215092 0)
(-2.19648 0.0207626 6.32893e-20)
(-2.22532 0.0199962 6.23781e-20)
(-2.25323 0.0192095 0)
(-2.28018 0.018404 6.05881e-20)
(-2.30613 0.0175793 0)
(-2.33103 0.0167367 1.17657e-19)
(-2.35485 0.015876 0)
(-2.37755 0.0149978 1.14171e-19)
(-2.39908 0.0141016 0)
(-2.41941 0.0131873 -1.1069e-19)
(-2.43851 0.0122534 0)
(-2.45632 0.0112981 0)
(-2.47281 0.0103176 0)
(-2.48793 0.00930722 1.03652e-19)
(-2.50165 0.00825998 0)
(-2.51389 0.00716788 -1.00053e-19)
(-2.52461 0.0060223 0)
(-2.53373 0.00481673 9.63799e-20)
(-2.54118 0.00355641 9.4514e-20)
(-2.54688 0.00228074 9.26293e-20)
(-2.55072 0.00108041 0)
(-2.55259 4.44182e-05 0)
(-2.55294 -0.000863298 0)
(-2.5518 -0.00172903 0)
(-2.54918 -0.00257945 0)
(-2.5451 -0.00342307 0)
(-2.53953 -0.00426189 0)
(-2.53248 -0.00509614 0)
(-2.52394 -0.00592548 -7.36158e-20)
(-2.5139 -0.00674919 -7.12322e-20)
(-2.50235 -0.00756668 0)
(-2.4893 -0.00837712 0)
(-2.47475 -0.00917993 0)
(-2.45868 -0.00997425 -6.10447e-20)
(-2.44112 -0.0107595 0)
(-2.42205 -0.011535 0)
(-2.40149 -0.0123 0)
(-2.37944 -0.0130539 0)
(-2.35592 -0.0137962 4.66438e-20)
(-2.33094 -0.014526 0)
(-2.3045 -0.015243 0)
(-2.27663 -0.0159465 -3.69774e-20)
(-2.24734 -0.0166359 3.35653e-20)
(-2.21665 -0.0173106 0)
(-2.18458 -0.0179703 2.64348e-20)
(-2.15116 -0.0186142 0)
(-2.11641 -0.019242 -1.88701e-20)
(-2.08036 -0.0198534 0)
(-2.04302 -0.0204481 0)
(-2.00445 -0.021026 0)
(-1.96465 -0.0215874 0)
(-1.92367 -0.0221327 0)
(-1.88154 -0.0226604 -1.35804e-20)
(-1.83829 -0.0231702 -2.31112e-20)
(-1.79395 -0.0236623 0)
(-1.74856 -0.0241359 0)
(-1.70217 -0.0245957 0)
(-1.65481 -0.0250397 6.45112e-20)
(-1.60651 -0.0254654 0)
(-1.55731 -0.0258728 0)
(-1.50726 -0.026263 0)
(-1.4564 -0.0266363 1.11978e-19)
(-1.40476 -0.0269935 -1.2495e-19)
(-1.35241 -0.0273348 0)
(-1.29937 -0.0276605 0)
(-1.24568 -0.0279713 -1.66942e-19)
(-1.1914 -0.0282677 -1.8207e-19)
(-1.13656 -0.0285504 0)
(-1.08121 -0.0288201 0)
(-1.02538 -0.0290777 2.31382e-19)
(-0.96912 -0.029324 -2.49281e-19)
(-0.912466 -0.02956 0)
(-0.855459 -0.0297869 0)
(-0.798135 -0.0300057 -3.08139e-19)
(-0.740532 -0.0302176 0)
(-0.682683 -0.0304239 0)
(-0.624624 -0.0306261 -3.76243e-19)
(-0.566385 -0.0308256 0)
(-0.507997 -0.031024 -4.28002e-19)
(-0.449489 -0.0312228 0)
(-0.390886 -0.0314234 0)
(-0.332215 -0.0316265 0)
(-0.273501 -0.0318324 5.51462e-19)
(-0.214768 -0.0320449 0)
(-0.156038 -0.0322835 0)
(-0.0973397 -0.0325486 0)
(-0.038721 -0.032767 0)
(0.0197605 -0.0325136 0)
(0.0780805 -0.0317192 0)
(0.136291 -0.0308444 7.00032e-19)
(0.194364 -0.0300208 6.83785e-19)
(0.252301 -0.0292524 0)
(0.31012 -0.028528 0)
(0.367826 -0.0278351 0)
(0.425404 -0.0271591 -6.28958e-19)
(0.482802 -0.0264799 0)
(0.539906 -0.0257661 1.21255e-18)
(0.596536 -0.0249606 -1.19209e-18)
(0.652118 -0.0239542 -1.17342e-18)
(0.706372 -0.0224849 1.15737e-18)
(0.754701 -0.0199284 -1.14578e-18)
(0.802623 -0.0148885 1.14482e-18)
(0.800248 0.00174029 0)
(0.00457777 -0.0307261 0)
(0.0108145 -0.0329267 0)
(0.0115628 -0.0219295 4.82769e-19)
(0.00939825 -0.00942976 0)
(0.00484056 0.00269439 -3.2448e-19)
(-0.00177545 0.0135614 -2.94608e-19)
(-0.0104311 0.0226777 -1.35543e-19)
(-0.0210606 0.0299518 -1.25572e-19)
(-0.0335656 0.035598 0)
(-0.0477811 0.0399841 -1.07595e-19)
(-0.0635033 0.0435016 0)
(-0.080556 0.0464717 0)
(-0.0988145 0.0491115 1.69951e-19)
(-0.118188 0.0515437 7.89588e-20)
(-0.138614 0.0538278 -1.47089e-19)
(-0.160048 0.0559853 -1.37652e-19)
(-0.182463 0.0580204 -6.47324e-20)
(-0.205836 0.0599288 0)
(-0.230151 0.0617069 0)
(-0.255394 0.0633516 0)
(-0.281558 0.0648651 -5.24248e-20)
(-0.308637 0.0662508 0)
(-0.336633 0.0675172 1.44822e-19)
(-0.365555 0.0686717 0)
(-0.395423 0.0697234 0)
(-0.426268 0.0706832 4.35275e-20)
(-0.458138 0.0715593 0)
(-0.491098 0.0723832 -4.1124e-20)
(-0.525217 0.0731926 -8.0128e-20)
(-0.560602 0.0740733 3.92581e-20)
(-0.59733 0.0751099 0)
(-0.635439 0.076408 0)
(-0.674965 0.078028 0)
(-0.715502 0.0798245 -7.42159e-20)
(-0.756822 0.0814969 -7.36791e-20)
(-0.799575 0.0825882 -3.68193e-20)
(-0.842152 0.0832539 0)
(-0.884484 0.0840642 7.32853e-20)
(-0.926098 0.0841178 0)
(-0.96632 0.0840524 -7.33774e-20)
(-1.00755 0.0853401 0)
(-1.04882 0.0865664 0)
(-1.0924 0.0881833 6.94545e-20)
(-1.13368 0.0892083 0)
(-1.17355 0.0899712 1.97255e-19)
(-1.21214 0.0902359 -6.43017e-20)
(-1.25022 0.089823 0)
(-1.28797 0.0891155 -6.15372e-20)
(-1.32532 0.0882675 -6.02609e-20)
(-1.36228 0.0873082 0)
(-1.39888 0.0862701 0)
(-1.43515 0.0851757 0)
(-1.47108 0.0840431 0)
(-1.50669 0.082883 0)
(-1.54199 0.0817036 5.38225e-20)
(-1.57695 0.0805077 1.05548e-19)
(-1.61158 0.0792978 -5.20398e-20)
(-1.64587 0.0780723 0)
(-1.67981 0.0768311 1.00515e-19)
(-1.71338 0.0755706 -4.93446e-20)
(-1.74657 0.0742898 0)
(-1.77935 0.0729843 -4.81358e-20)
(-1.81171 0.071653 0)
(-1.84363 0.0702915 0)
(-1.87509 0.068899 -9.19052e-20)
(-1.90605 0.0674716 4.54312e-20)
(-1.9365 0.0660088 -8.93497e-20)
(-1.9664 0.0645075 8.81162e-20)
(-1.99573 0.0629677 4.35721e-20)
(-2.02446 0.0613868 0)
(-2.05256 0.0597657 4.23916e-20)
(-2.08 0.0581025 0)
(-2.10674 0.0563984 0)
(-2.13276 0.0546522 0)
(-2.15803 0.0528658 3.9931e-20)
(-2.18251 0.0510386 0)
(-2.20617 0.0491726 7.78725e-20)
(-2.22897 0.0472681 -1.15269e-19)
(-2.2509 0.0453271 -3.79357e-20)
(-2.2719 0.0433504 0)
(-2.29196 0.0413404 -3.68472e-20)
(-2.31104 0.039298 0)
(-2.32911 0.0372256 -7.15086e-20)
(-2.34614 0.0351245 0)
(-2.3621 0.0329967 -6.93014e-20)
(-2.37695 0.0308435 1.36182e-19)
(-2.39068 0.0286667 6.70605e-20)
(-2.40325 0.0264671 0)
(-2.41464 0.0242459 0)
(-2.42481 0.0220033 0)
(-2.43376 0.0197388 -6.24336e-20)
(-2.44145 0.0174511 0)
(-2.44789 0.0151384 6.00283e-20)
(-2.45306 0.0127979 0)
(-2.45697 0.0104254 -1.72684e-19)
(-2.45965 0.00801789 -5.62872e-20)
(-2.46118 0.00559179 -5.50056e-20)
(-2.46163 0.00321015 0)
(-2.46114 0.000961021 0)
(-2.45936 -0.00116391 0)
(-2.45619 -0.00323175 0)
(-2.45161 -0.0052666 0)
(-2.44559 -0.00727763 -9.35872e-20)
(-2.43811 -0.00926702 -9.06639e-20)
(-2.42917 -0.0112343 0)
(-2.41876 -0.0131779 4.21796e-20)
(-2.40688 -0.0150961 4.06243e-20)
(-2.39351 -0.0169868 0)
(-2.37866 -0.0188481 7.5243e-20)
(-2.36232 -0.0206779 0)
(-2.3445 -0.0224744 -3.45589e-20)
(-2.32519 -0.0242357 0)
(-2.30441 -0.0259599 0)
(-2.28215 -0.0276453 5.8397e-20)
(-2.25843 -0.0292903 0)
(-2.23325 -0.0308932 -2.53357e-20)
(-2.20663 -0.0324525 0)
(-2.17858 -0.0339668 0)
(-2.14912 -0.0354345 -2.03468e-20)
(-2.11826 -0.0368544 -1.77621e-20)
(-2.08601 -0.0382252 0)
(-2.05241 -0.0395457 1.45094e-20)
(-2.01748 -0.0408147 0)
(-1.98123 -0.0420311 -1.04623e-20)
(-1.94369 -0.043194 -1.59983e-20)
(-1.9049 -0.0443027 0)
(-1.86487 -0.0453569 0)
(-1.82365 -0.0463568 0)
(-1.78126 -0.047303 0)
(-1.73773 -0.0481962 6.61858e-21)
(-1.69309 -0.0490362 3.16814e-20)
(-1.64739 -0.0498221 0)
(-1.60066 -0.050548 0)
(-1.55293 -0.0512171 0)
(-1.50425 -0.0518385 -2.99375e-20)
(-1.45464 -0.0524097 0)
(-1.40416 -0.0529257 0)
(-1.35283 -0.053387 8.72105e-20)
(-1.30071 -0.0537957 4.75732e-20)
(-1.24782 -0.0541533 5.4692e-20)
(-1.19423 -0.0544609 0)
(-1.13996 -0.0547196 0)
(-1.08506 -0.0549306 7.02148e-20)
(-1.02957 -0.0550955 -7.3341e-20)
(-0.973535 -0.0552158 0)
(-0.916995 -0.055293 0)
(-0.85999 -0.055329 -9.16688e-20)
(-0.802561 -0.0553257 2.89284e-19)
(-0.744748 -0.0552852 0)
(-0.686589 -0.0552095 0)
(-0.628122 -0.055101 1.13965e-19)
(-0.569383 -0.0549619 0)
(-0.510406 -0.0547946 2.48596e-19)
(-0.451224 -0.0546015 -1.28976e-19)
(-0.391869 -0.0543854 0)
(-0.332371 -0.0541485 1.42979e-19)
(-0.272758 -0.0538933 2.95611e-19)
(-0.213054 -0.0536219 0)
(-0.153285 -0.0533354 0)
(-0.0934738 -0.0530344 -1.67072e-19)
(-0.0336439 -0.0527196 0)
(0.0261858 -0.0523871 3.52451e-19)
(0.0860046 -0.0520364 0)
(0.145831 -0.0516596 0)
(0.205652 -0.0511331 0)
(0.265384 -0.0504224 0)
(0.325017 -0.0496685 -1.85836e-19)
(0.384577 -0.0489392 -1.87467e-19)
(0.44407 -0.0482429 0)
(0.503499 -0.0475708 0)
(0.562857 -0.0469077 0)
(0.622119 -0.0462317 1.93024e-19)
(0.681229 -0.0455086 0)
(0.740071 -0.0446817 -3.90558e-19)
(0.798457 -0.0436425 3.92655e-19)
(0.855914 -0.042188 3.94759e-19)
(0.912061 -0.0398138 3.94154e-19)
(0.964099 -0.0355829 4.00102e-19)
(1.01507 -0.026396 4.02884e-19)
(1.04342 -0.00390833 0)
(0.000670461 -0.0401059 0)
(-0.000869011 -0.0295817 0)
(-0.00635893 -0.0120858 -3.28876e-19)
(-0.0137641 0.00437872 -2.3778e-19)
(-0.0226707 0.0194034 1.95702e-19)
(-0.0327768 0.03288 1.72511e-19)
(-0.0440435 0.0447011 4.53115e-23)
(-0.0565467 0.0548261 0)
(-0.0703684 0.0633549 0)
(-0.0855424 0.0705167 0)
(-0.102046 0.0766029 0)
(-0.11982 0.0818962 0)
(-0.138792 0.0866282 -3.32271e-19)
(-0.158893 0.0909654 0)
(-0.180068 0.0950147 9.99268e-20)
(-0.202273 0.0988385 9.51973e-20)
(-0.225485 0.10247 0)
(-0.249686 0.105928 0)
(-0.274871 0.10922 0)
(-0.301036 0.112357 0)
(-0.328186 0.11535 7.74831e-20)
(-0.356327 0.118215 0)
(-0.385464 0.120971 -7.25268e-20)
(-0.415608 0.123647 0)
(-0.446766 0.12627 0)
(-0.478946 0.128875 0)
(-0.512152 0.131495 -1.30017e-19)
(-0.546382 0.134165 0)
(-0.581615 0.136917 6.22826e-20)
(-0.617799 0.139776 -1.22162e-19)
(-0.654804 0.142738 0)
(-0.69244 0.145724 0)
(-0.730466 0.148603 0)
(-0.768573 0.151212 5.71262e-20)
(-0.806525 0.153419 5.61406e-20)
(-0.844147 0.15509 0)
(-0.881281 0.156542 0)
(-0.917512 0.157683 -1.061e-19)
(-0.953124 0.157803 -1.03997e-19)
(-0.988038 0.157322 1.01919e-19)
(-1.02286 0.155064 0)
(-1.05824 0.151287 0)
(-1.09414 0.148508 0)
(-1.12958 0.146544 0)
(-1.16417 0.145045 -9.054e-20)
(-1.19789 0.143317 -8.84774e-20)
(-1.23108 0.141448 8.66492e-20)
(-1.26401 0.139572 0)
(-1.29668 0.137683 0)
(-1.32911 0.135774 0)
(-1.3613 0.133847 0)
(-1.39326 0.131903 -7.873e-20)
(-1.42501 0.129948 0)
(-1.45655 0.12798 0)
(-1.48787 0.126002 -7.47543e-20)
(-1.51896 0.12401 -7.36841e-20)
(-1.54982 0.122003 0)
(-1.58043 0.119976 1.42419e-19)
(-1.61079 0.117925 -7.02634e-20)
(-1.64086 0.115846 6.91954e-20)
(-1.67065 0.113734 0)
(-1.70012 0.111584 0)
(-1.72926 0.109393 0)
(-1.75805 0.107156 0)
(-1.78645 0.104869 6.42783e-20)
(-1.81445 0.10253 1.26431e-19)
(-1.84201 0.100136 6.24673e-20)
(-1.86912 0.097684 -6.15874e-20)
(-1.89574 0.095173 0)
(-1.92184 0.0926013 1.19467e-19)
(-1.9474 0.0899685 1.17793e-19)
(-1.97238 0.0872738 1.16139e-19)
(-1.99675 0.0845178 -1.14504e-19)
(-2.02048 0.0817006 0)
(-2.04354 0.0788236 -1.67028e-19)
(-2.06589 0.0758877 0)
(-2.08751 0.0728948 5.39346e-20)
(-2.10835 0.0698467 5.33495e-20)
(-2.12839 0.0667457 0)
(-2.14759 0.0635942 0)
(-2.16593 0.060395 1.01739e-19)
(-2.18337 0.0571506 0)
(-2.19987 0.0538642 9.85511e-20)
(-2.21542 0.0505387 0)
(-2.22997 0.0471771 -9.5331e-20)
(-2.2435 0.0437825 -1.87514e-19)
(-2.25598 0.0403581 0)
(-2.26739 0.0369067 0)
(-2.27769 0.0334316 0)
(-2.28688 0.0299362 -8.70493e-20)
(-2.29491 0.0264241 0)
(-2.30179 0.0228998 -8.36132e-20)
(-2.3075 0.0193695 0)
(-2.31203 0.0158421 0)
(-2.31538 0.0123303 1.56575e-19)
(-2.31755 0.00885175 0)
(-2.31854 0.00542887 7.4641e-20)
(-2.31832 0.00207354 0)
(-2.31685 -0.00123784 7.07866e-20)
(-2.31405 -0.00452834 0)
(-2.3099 -0.00779401 0)
(-2.30437 -0.0110301 0)
(-2.29746 -0.0142341 1.88144e-19)
(-2.28913 -0.0174035 6.05169e-20)
(-2.27939 -0.0205354 0)
(-2.26822 -0.0236266 0)
(-2.25561 -0.0266737 0)
(-2.24157 -0.0296733 0)
(-2.22609 -0.0326222 -4.96342e-20)
(-2.20917 -0.0355172 9.52987e-20)
(-2.1908 -0.0383551 4.5077e-20)
(-2.171 -0.0411329 -8.61335e-20)
(-2.14976 -0.0438475 -8.14636e-20)
(-2.12708 -0.0464963 -3.80237e-20)
(-2.10299 -0.0490764 0)
(-2.07748 -0.0515853 -6.71095e-20)
(-2.05057 -0.0540204 0)
(-2.02227 -0.0563795 5.72602e-20)
(-1.99259 -0.0586603 2.57064e-20)
(-1.96155 -0.0608606 0)
(-1.92918 -0.0629784 -4.20855e-20)
(-1.89548 -0.0650119 -1.79995e-20)
(-1.86047 -0.0669592 0)
(-1.8242 -0.0688186 -1.37196e-20)
(-1.78667 -0.0705886 3.12344e-20)
(-1.74791 -0.0722681 0)
(-1.70795 -0.0738563 0)
(-1.66683 -0.0753532 0)
(-1.62457 -0.0767598 0)
(-1.58121 -0.078077 -5.97613e-21)
(-1.53677 -0.0793046 -1.26541e-20)
(-1.49129 -0.0804411 0)
(-1.4448 -0.0814831 0)
(-1.39735 -0.0824315 0)
(-1.34896 -0.0832953 0)
(-1.29968 -0.084073 0)
(-1.24954 -0.0847606 0)
(-1.19858 -0.0853584 -5.2342e-20)
(-1.14684 -0.0858686 -1.26856e-21)
(-1.09436 -0.0862933 0)
(-1.04119 -0.0866345 0)
(-0.987365 -0.086894 -7.41417e-20)
(-0.932924 -0.0870738 0)
(-0.877909 -0.0871763 8.70524e-20)
(-0.822361 -0.0872039 9.15396e-20)
(-0.766321 -0.0871592 0)
(-0.709828 -0.0870451 0)
(-0.652922 -0.0868644 -1.10305e-19)
(-0.595641 -0.0866205 -2.29536e-19)
(-0.538024 -0.0863165 0)
(-0.480105 -0.085956 0)
(-0.421921 -0.0855424 0)
(-0.363504 -0.0850795 -1.3926e-19)
(-0.304888 -0.0845708 1.45015e-19)
(-0.246103 -0.0840202 0)
(-0.187176 -0.0834313 3.10249e-19)
(-0.128135 -0.0828072 1.59477e-19)
(-0.0690044 -0.0821511 -3.33007e-19)
(-0.00980642 -0.0814668 0)
(0.0494385 -0.0807574 0)
(0.108713 -0.0800248 -3.58099e-19)
(0.168001 -0.0792654 -1.83403e-19)
(0.227286 -0.078482 0)
(0.286572 -0.0776796 0)
(0.345868 -0.0768542 0)
(0.405161 -0.0760051 0)
(0.464442 -0.0751516 -3.92801e-19)
(0.52371 -0.0743164 0)
(0.582953 -0.0735028 0)
(0.642162 -0.0727007 0)
(0.701323 -0.071891 0)
(0.760407 -0.0710432 0)
(0.819356 -0.0701077 0)
(0.878061 -0.069 -4.26689e-19)
(0.936351 -0.0675654 0)
(0.993836 -0.0655136 0)
(1.05024 -0.0622315 -8.80453e-19)
(1.10369 -0.056536 4.44122e-19)
(1.15713 -0.0456116 -4.52854e-19)
(1.19836 -0.0223948 4.61953e-19)
(-0.00401887 -0.0338833 0)
(-0.0111789 -0.0140994 9.29115e-19)
(-0.0206103 0.006853 0)
(-0.0315437 0.0254911 1.80823e-19)
(-0.0434952 0.0423048 0)
(-0.0561416 0.0575001 0)
(-0.0695016 0.071126 -1.19304e-19)
(-0.083692 0.0832044 0)
(-0.0988271 0.0938128 0)
(-0.114991 0.103105 0)
(-0.132231 0.111289 0)
(-0.150554 0.118587 0)
(-0.169943 0.125203 3.45672e-19)
(-0.190368 0.131301 1.65292e-19)
(-0.211796 0.137005 -1.58336e-19)
(-0.234198 0.142397 0)
(-0.257552 0.147531 0)
(-0.281843 0.152443 0)
(-0.307059 0.157155 0)
(-0.333194 0.161683 0)
(-0.360238 0.166043 1.27182e-19)
(-0.38818 0.170247 1.23396e-19)
(-0.417006 0.174313 -1.199e-19)
(-0.446689 0.178254 1.16654e-19)
(-0.477192 0.182085 0)
(-0.508467 0.185816 0)
(-0.540441 0.189451 1.08079e-19)
(-0.573025 0.192982 0)
(-0.606102 0.196387 0)
(-0.639526 0.199617 1.00784e-19)
(-0.673126 0.202603 9.85513e-20)
(-0.706711 0.205244 9.63744e-20)
(-0.740098 0.207416 0)
(-0.773119 0.208998 0)
(-0.805693 0.209903 -8.99361e-20)
(-0.837803 0.210115 0)
(-0.869382 0.209795 0)
(-0.900433 0.209044 8.36014e-20)
(-0.931038 0.207707 -8.17999e-20)
(-0.961378 0.205747 7.99648e-20)
(-0.991661 0.203126 0)
(-1.02218 0.200047 0)
(-1.05287 0.197115 1.49441e-19)
(-1.08344 0.19441 0)
(-1.11368 0.191861 1.43044e-19)
(-1.14355 0.189305 2.1018e-19)
(-1.17317 0.186722 -2.05971e-19)
(-1.20262 0.184149 1.34611e-19)
(-1.23191 0.181589 0)
(-1.26107 0.179038 0)
(-1.29009 0.17649 1.27278e-19)
(-1.31898 0.173942 6.25742e-20)
(-1.34773 0.17139 0)
(-1.37635 0.16883 0)
(-1.40482 0.166257 5.94742e-20)
(-1.43313 0.163665 1.16901e-19)
(-1.46128 0.161049 0)
(-1.48924 0.158401 -1.13381e-19)
(-1.51701 0.155717 1.11507e-19)
(-1.54455 0.152989 -1.09817e-19)
(-1.57187 0.150211 0)
(-1.59892 0.147377 0)
(-1.6257 0.144481 0)
(-1.65218 0.141519 0)