/*--------------------------------*- C++ -*----------------------------------*\
| =========                 |                                                 |
| \\      /  F ield         | OpenFOAM: The Open Source CFD Toolbox           |
|  \\    /   O peration     | Version:  5.x                                   |
|   \\  /    A nd           | Web:      www.OpenFOAM.org                      |
|    \\/     M anipulation  |                                                 |
\*---------------------------------------------------------------------------*/
FoamFile
{
    version     2.0;
    format      ascii;
    class       volScalarField;
    location    "1000";
    object      epsilon;
}
// * * * * * * * * * * * * * * * * * * * * * * * * * * * * * * * * * * * * * //

dimensions      [0 2 -3 0 0 0 0];

internalField   nonuniform List<scalar> 
12225
(
295.221
280.071
266.401
251.974
240.02
230.74
224.126
220.964
221.517
223.075
228.161
232.354
240.948
246.416
255.884
263.054
273.221
280.086
53.5092
95.0111
110.672
119.149
130.115
143.466
161.014
180.322
203.693
225.891
252.53
275.241
302.765
323.199
349.987
366.193
392.619
401.225
20.3002
34.9399
44.9892
51.0145
56.0832
60.5607
65.8194
71.2252
78.3358
85.7572
94.4786
102.927
112.311
121.599
130.759
140.86
148.689
159.819
15.8219
19.1065
23.5861
27.0411
29.9453
32.3477
34.6272
36.7971
39.0214
41.4693
43.9097
46.7777
49.2973
52.6126
55.0569
58.7756
61.0311
64.9999
14.9579
15.5051
16.9714
18.5003
19.9479
21.2638
22.4218
23.5557
24.5266
25.6232
26.5175
27.6784
28.5233
29.7805
30.5804
31.9234
32.6775
34.0774
14.7621
14.7702
15.0478
15.4873
16.0598
16.6657
17.2138
17.7912
18.2655
18.8078
19.2221
19.7538
20.1254
20.661
21
21.5464
21.8517
22.4169
14.7599
14.6059
14.5472
14.5695
14.6625
14.8253
15.0082
15.2326
15.424
15.6584
15.8408
16.0738
16.2419
16.4733
16.625
16.8588
16.9893
17.2339
14.764
14.593
14.4483
14.3526
14.2866
14.2774
14.2894
14.3272
14.3742
14.4511
14.5129
14.6013
14.6679
14.7626
14.8266
14.9264
14.9848
15.0945
14.7653
14.5944
14.4319
14.2948
14.1725
14.0807
14.0078
13.9588
13.9193
13.902
13.8882
13.8887
13.8937
13.9032
13.9139
13.9329
13.9494
13.9777
14.7654
14.5951
14.4316
14.2821
14.1417
14.017
13.9039
13.8072
13.7197
13.6469
13.5814
13.5278
13.4789
13.4409
13.4023
13.3774
13.3442
13.3329
14.7655
14.5946
14.4322
14.2802
14.1361
14.0022
13.8762
13.7605
13.6523
13.554
13.4621
13.3796
13.3016
13.2332
13.1664
13.1103
13.0519
13.0068
14.7657
14.5942
14.4321
14.2796
14.1352
13.9994
13.8707
13.7499
13.6355
13.5286
13.4272
13.333
13.2433
13.1605
13.0811
13.0086
12.9382
12.8748
14.7657
14.594
14.4319
14.2791
14.1347
13.9985
13.8694
13.7476
13.632
13.5229
13.4194
13.3216
13.2287
13.1411
13.0576
12.9791
12.9042
12.8338
14.7657
14.5938
14.4317
14.2788
14.1343
13.9978
13.8687
13.7466
13.6308
13.5212
13.4173
13.3188
13.2252
13.1364
13.052
12.972
12.8958
12.8235
14.7657
14.5938
14.4316
14.2785
14.134
13.9973
13.8681
13.7458
13.63
13.5203
13.4162
13.3174
13.2237
13.1347
13.0501
12.9697
12.8932
12.8205
14.7657
14.5937
14.4315
14.2783
14.1337
13.997
13.8677
13.7453
13.6294
13.5195
13.4154
13.3165
13.2227
13.1336
13.0489
12.9684
12.8918
12.8189
14.7657
14.5937
14.4314
14.2782
14.1335
13.9968
13.8674
13.7449
13.6289
13.519
13.4148
13.3159
13.222
13.1328
13.048
12.9674
12.8907
12.8178
14.7657
14.5937
14.4314
14.2782
14.1334
13.9967
13.8672
13.7448
13.6287
13.5188
13.4145
13.3155
13.2216
13.1323
13.0475
12.9669
12.8902
12.8172
14.7657
14.5937
14.4314
14.2782
14.1335
13.9967
13.8673
13.7448
13.6287
13.5188
13.4145
13.3155
13.2215
13.1323
13.0475
12.9668
12.8901
12.8171
14.7657
14.5937
14.4314
14.2782
14.1336
13.9968
13.8674
13.7449
13.6289
13.519
13.4147
13.3158
13.2218
13.1326
13.0478
12.9672
12.8906
12.8176
14.7657
14.5937
14.4315
14.2783
14.1337
13.997
13.8677
13.7453
13.6294
13.5195
13.4155
13.3167
13.2231
13.1342
13.0499
12.9697
12.8937
12.8213
14.7657
14.5937
14.4316
14.2785
14.134
13.9974
13.8685
13.7466
13.6317
13.5229
13.4205
13.3234
13.2321
13.1455
13.064
12.9866
12.914
12.8446
14.7658
14.5936
14.4317
14.2788
14.1355
14.0009
13.8756
13.7586
13.6503
13.5492
13.456
13.3688
13.2887
13.2133
13.1444
13.0788
13.0195
12.9618
14.7656
14.5928
14.4329
14.285
14.1535
14.0357
13.9345
13.8456
13.7695
13.7021
13.6453
13.5939
13.5511
13.5109
13.4785
13.4459
13.4217
13.394
14.7602
14.5949
14.4598
14.3603
14.3015
14.2696
14.2708
14.2798
14.3009
14.3285
14.3644
14.3978
14.4378
14.4716
14.5131
14.5448
14.5876
14.6154
14.7331
14.6932
14.7217
14.8718
15.091
15.3343
15.5842
15.8179
16.0446
16.248
16.4479
16.6241
16.8033
16.9582
17.124
17.2621
17.4208
17.5444
14.8009
15.3959
16.2568
17.2513
18.1422
18.9045
19.5742
20.1519
20.684
21.1523
21.6109
22.0201
22.4451
22.823
23.2361
23.5946
24.0076
24.3514
15.814
20.0259
23.4834
25.8826
27.6577
29.0369
30.2307
31.2991
32.3367
33.3252
34.3581
35.3563
36.4347
37.462
38.5947
39.6385
40.8235
41.8842
27.6507
42.3594
49.0917
52.488
54.9724
57.2191
59.5646
62.0632
64.7503
67.569
70.5673
73.6203
76.8055
79.9685
83.2296
86.4042
89.6537
92.7587
147.721
142.927
138.641
134.247
130.046
126.067
122.533
119.52
116.917
114.778
113.054
111.697
110.687
109.936
109.476
109.167
109.115
109.184
0.127711
0.167967
0.316843
0.447619
0.569336
0.706893
0.868604
1.06588
1.30726
1.59405
1.92181
2.28237
2.66723
3.06802
3.4779
3.89054
4.30114
4.70517
5.09959
5.48168
5.85016
6.20416
6.54395
6.8697
7.18184
7.47971
7.76153
8.02425
8.26261
8.47119
8.64319
8.77115
8.8402
8.86148
8.8252
8.77439
9.00576
8.9387
9.05809
9.17818
9.32855
40.3174
41.0173
41.3693
45.8653
48.3926
52.1129
55.5371
59.3659
63.2461
67.3572
71.6057
76.0455
80.65
85.4396
90.4062
95.5601
100.899
106.429
112.15
118.068
124.18
130.492
137.002
143.713
150.624
157.736
165.047
172.558
180.265
188.166
196.26
204.542
213.008
221.653
230.474
239.461
248.612
257.916
267.367
276.955
286.673
296.508
306.453
316.494
326.619
336.816
347.07
357.365
367.686
378.013
388.326
398.601
408.815
418.942
428.96
438.854
448.638
458.384
467.982
477.455
486.781
495.953
504.952
513.765
522.377
530.772
538.936
546.854
554.512
561.896
568.994
575.792
582.278
588.44
594.268
599.751
604.879
609.644
614.037
618.052
621.682
624.922
627.767
630.215
632.263
633.91
635.156
635.998
636.467
636.489
636.114
635.236
634.053
632.587
630.714
628.42
625.77
622.76
619.402
615.708
611.688
607.353
602.717
597.79
592.587
587.12
581.404
575.453
569.28
562.902
556.332
549.586
542.68
535.627
528.444
521.146
513.747
506.263
498.711
491.107
483.475
475.858
468.422
462.647
459.576
456.895
454.239
451.578
448.912
446.241
443.566
440.882
438.171
435.398
432.484
429.269
425.308
419.601
396.206
0.671005
0.422179
0.429536
0.486259
0.573408
0.687599
0.831707
1.00923
1.22206
1.46945
1.74816
2.05353
2.38047
2.72406
3.07991
3.44426
3.81397
4.1867
4.56079
4.93569
5.31142
5.68928
6.07066
6.45818
6.85353
7.25912
7.67527
8.10182
8.54164
9.01158
9.52529
10.0892
10.7341
11.5188
12.5503
13.7675
15.0694
16.4966
17.2777
19.7631
21.6476
24.8663
25.7348
27.2082
28.9493
30.532
32.2813
34.0424
35.8928
37.7928
39.765
41.7997
43.9045
46.0772
48.321
50.6358
53.0232
55.4835
58.0179
60.6264
63.3098
66.068
68.9014
71.8097
74.7929
77.8505
80.9819
84.1864
87.4632
90.811
94.2287
97.7147
101.267
104.885
108.565
112.305
116.103
119.956
123.862
127.816
131.815
135.857
139.936
144.049
148.191
152.358
156.543
160.742
164.948
169.155
173.355
177.543
181.71
185.851
189.961
194.039
198.095
202.151
206.259
210.327
214.345
218.308
222.211
226.048
229.814
233.501
237.106
240.62
244.04
247.36
250.573
253.675
256.661
259.526
262.265
264.874
267.348
269.683
271.876
273.924
275.823
277.571
279.164
280.602
281.882
283.003
283.963
284.763
285.401
285.878
286.182
286.317
286.291
286.11
285.802
285.328
284.689
283.9
282.96
281.875
280.648
279.282
277.783
276.153
274.398
272.522
270.53
268.427
266.219
263.911
261.509
259.017
256.443
253.792
251.069
248.281
245.435
242.535
239.588
236.601
233.58
230.537
227.487
224.493
221.844
219.735
217.772
215.839
213.915
211.996
210.084
208.179
206.284
204.399
202.523
200.656
198.782
196.949
195.046
191.819
1.4555
0.760218
0.68887
0.720831
0.797551
0.909061
1.05431
1.23373
1.44698
1.69213
1.96584
2.264
2.58244
2.91736
3.26555
3.6245
3.9923
4.36785
4.75067
5.14124
5.54069
5.95126
6.37563
6.81775
7.28186
7.77388
8.30084
8.87302
9.49861
10.1789
10.9203
11.7373
12.6375
13.617
14.6449
15.748
16.8589
17.9839
18.886
20.0778
21.2681
22.6642
23.8377
25.1603
26.5308
27.9232
29.3755
30.8747
32.4285
34.0333
35.6918
37.4036
39.1701
40.9914
42.8685
44.8015
46.7912
48.8379
50.9418
53.1034
55.3227
57.5999
59.935
62.3278
64.7783
67.286
69.8505
72.4713
75.1477
77.8789
80.6639
83.5016
86.3909
89.3303
92.3183
95.3532
98.433
101.556
104.719
107.921
111.159
114.429
117.73
121.058
124.409
127.78
131.167
134.566
137.974
141.386
144.798
148.206
151.607
154.999
158.379
161.75
165.112
168.472
171.823
175.14
178.419
181.654
184.841
187.974
191.05
194.062
197.007
199.88
202.675
205.389
208.016
210.554
212.996
215.34
217.581
219.717
221.742
223.655
225.451
227.129
228.685
230.118
231.425
232.605
233.656
234.576
235.366
236.024
236.548
236.94
237.194
237.303
237.301
237.164
236.908
236.522
236.005
235.364
234.601
233.719
232.721
231.609
230.388
229.06
227.63
226.101
224.477
222.762
220.961
219.078
217.118
215.085
212.984
210.819
208.596
206.32
203.994
201.625
199.218
196.777
194.308
191.82
189.325
186.858
184.523
182.389
180.343
178.331
176.333
174.348
172.376
170.419
168.48
166.564
164.676
162.83
161.043
159.395
157.89
156.469
2.37779
1.14464
0.985547
0.992372
1.0651
1.18064
1.33272
1.51916
1.73825
1.9876
2.26405
2.56409
2.88425
3.22154
3.57356
3.93865
4.31579
4.70467
5.10562
5.51966
5.94838
6.39406
6.8593
7.34727
7.86122
8.40479
8.98166
9.59554
10.2498
10.9465
11.6879
12.4741
13.3013
14.1605
15.0403
15.9765
16.9991
18.0619
19.1174
20.2484
21.4196
22.6497
23.8644
25.1338
26.4453
27.7967
29.1946
30.6395
32.1333
33.6762
35.2692
36.913
38.6084
40.3559
42.1562
44.0098
45.9172
47.8789
49.8953
51.9667
54.0935
56.2759
58.514
60.8081
63.158
65.5636
68.0247
70.5411
73.1122
75.7374
78.4162
81.1475
83.9305
86.7639
89.6464
92.5766
95.5527
98.5731
101.636
104.738
107.878
111.053
114.26
117.497
120.76
124.046
127.351
130.672
134.006
137.349
140.697
144.047
147.396
150.741
154.08
157.411
160.734
164.043
167.33
170.585
173.801
176.975
180.101
183.174
186.189
189.141
192.026
194.838
197.573
200.226
202.792
205.268
207.65
209.932
212.111
214.184
216.147
217.997
219.731
221.345
222.839
224.208
225.452
226.569
227.556
228.414
229.141
229.737
230.2
230.53
230.718
230.777
230.72
230.529
230.215
229.773
229.205
228.515
227.704
226.776
225.735
224.582
223.322
221.959
220.495
218.935
217.283
215.543
213.72
211.817
209.841
207.794
205.682
203.51
201.282
199.004
196.68
194.315
191.914
189.483
187.026
184.552
182.07
179.605
177.204
174.902
172.66
170.449
168.259
166.086
163.931
161.798
159.692
157.617
155.585
153.613
151.726
150.003
148.472
147.191
3.3215
1.5437
1.29129
1.27137
1.33667
1.45269
1.60824
1.79874
2.02133
2.2733
2.5517
2.85343
3.17557
3.51564
3.87174
4.24268
4.62785
5.0273
5.44164
5.872
6.31991
6.78734
7.27642
7.78945
8.32863
8.89607
9.49371
10.1233
10.7866
11.4851
12.2207
12.9942
13.806
14.6548
15.5367
16.4632
17.4445
18.4689
19.5265
20.6277
21.7697
22.9534
24.1735
25.4386
26.7487
28.1032
29.5041
30.9525
32.4499
33.9972
35.5955
37.2456
38.9484
40.7049
42.5161
44.3828
46.3056
48.285
50.3216
52.4162
54.5693
56.7813
59.0528
61.3841
63.7754
66.227
68.7389
71.3109
73.943
76.6347
79.3856
82.195
85.0622
87.986
90.9654
93.9989
97.085
100.222
103.408
106.64
109.916
113.235
116.592
119.984
123.409
126.863
130.343
133.845
137.365
140.898
144.443
147.993
151.547
155.098
158.645
162.182
165.703
169.203
172.676
176.114
179.512
182.864
186.165
189.408
192.59
195.703
198.743
201.704
204.581
207.37
210.065
212.662
215.155
217.541
219.816
221.974
224.014
225.931
227.721
229.383
230.913
232.31
233.571
234.694
235.678
236.522
237.225
237.787
238.207
238.48
238.601
238.601
238.461
238.182
237.769
237.221
236.541
235.731
234.794
233.734
232.554
231.258
229.849
228.331
226.709
224.987
223.17
221.262
219.268
217.193
215.042
212.819
210.531
208.181
205.776
203.321
200.82
198.279
195.703
193.098
190.47
187.825
185.173
182.529
179.922
177.371
174.863
172.385
169.931
167.499
165.093
162.715
160.372
158.072
155.828
153.66
151.6
149.719
148.04
146.565
4.22949
1.93383
1.58793
1.54064
1.59603
1.7096
1.86545
2.05683
2.27988
2.53158
2.80907
3.10961
3.43067
3.77015
4.12648
4.49868
4.88635
5.28966
5.70923
6.14612
6.60172
7.07768
7.5758
8.09796
8.64598
9.22156
9.8263
10.4616
11.1289
11.8294
12.5649
13.3366
14.1463
14.9949
15.8822
16.8113
17.7848
18.8011
19.8583
20.9582
22.1017
23.2895
24.5214
25.7998
27.1258
28.4998
29.9231
31.3968
32.9223
34.5008
36.1335
37.8217
39.5665
41.369
43.2303
45.1513
47.1334
49.1777
51.2853
53.4573
55.6944
57.9977
60.3678
62.8056
65.3114
67.8859
70.5294
73.242
76.0238
78.8747
81.7943
84.7822
87.8376
90.9596
94.1471
97.3986
100.713
104.087
107.52
111.009
114.551
118.143
121.783
125.467
129.191
132.952
136.744
140.565
144.409
148.273
152.151
156.038
159.931
163.822
167.707
171.581
175.436
179.267
183.066
186.826
190.541
194.206
197.812
201.355
204.828
208.225
211.539
214.765
217.897
220.928
223.854
226.67
229.369
231.948
234.401
236.724
238.913
240.964
242.874
244.639
246.257
247.726
249.042
250.205
251.213
252.065
252.761
253.299
253.679
253.891
253.952
253.869
253.63
253.24
252.701
252.015
251.184
250.212
249.102
247.858
246.483
244.983
243.361
241.623
239.772
237.814
235.755
233.598
231.351
229.018
226.605
224.117
221.561
218.942
216.265
213.537
210.763
207.949
205.101
202.224
199.325
196.41
193.489
190.573
187.679
184.822
182
179.207
176.441
173.704
170.998
168.329
165.704
163.132
160.628
158.214
155.924
153.818
151.904
150.123
5.06564
2.29903
1.86322
1.78808
1.83165
1.94024
2.09359
2.28291
2.50342
2.75178
3.02519
3.32116
3.63746
3.9723
4.32433
4.69276
5.0773
5.47815
5.89592
6.33161
6.78649
7.26205
7.75992
8.28183
8.82953
9.4047
10.009
10.6439
11.311
12.0116
12.7473
13.5195
14.3299
15.1797
16.0699
17.002
17.977
18.9955
20.0579
21.1652
22.3187
23.5197
24.769
26.0681
27.418
28.8201
30.2754
31.7856
33.3521
34.9763
36.66
38.4045
40.2115
42.0825
44.019
46.0225
48.0947
50.237
52.4509
54.7378
57.0992
59.5361
62.0499
64.6415
67.3119
70.062
72.8923
75.8034
78.7955
81.8687
85.0228
88.2576
91.5723
94.966
98.4377
101.986
105.608
109.303
113.069
116.902
120.799
124.757
128.773
132.843
136.961
141.125
145.328
149.567
153.835
158.127
162.438
166.761
171.09
175.419
179.742
184.05
188.337
192.595
196.816
200.994
205.12
209.188
213.19
217.119
220.968
224.73
228.397
231.962
235.42
238.764
241.987
245.083
248.046
250.871
253.553
256.087
258.468
260.693
262.756
264.655
266.387
267.949
269.34
270.556
271.598
272.463
273.153
273.666
273.997
274.143
274.129
273.943
273.585
273.059
272.367
271.511
270.496
269.325
268.002
266.532
264.918
263.167
261.282
259.271
257.138
254.888
252.529
250.066
247.505
244.853
242.116
239.299
236.411
233.456
230.442
227.375
224.261
221.107
217.919
214.704
211.467
208.217
204.96
201.707
198.471
195.263
192.085
188.938
185.822
182.74
179.697
176.699
173.753
170.872
168.071
165.373
162.809
160.43
158.228
156.099
5.80478
2.62738
2.10804
2.00519
2.03547
2.13692
2.28525
2.46988
2.68514
2.92738
3.19382
3.48213
3.79038
4.11702
4.46092
4.82144
5.19838
5.59201
6.00299
6.43231
6.88118
7.351
7.84324
8.3596
8.90195
9.47201
10.0715
10.7021
11.3654
12.0629
12.7963
13.5669
14.3762
15.2258
16.1169
17.0507
18.0286
19.0517
20.1212
21.2385
22.4052
23.6227
24.8924
26.2155
27.5938
29.0288
30.5221
32.0757
33.6915
35.3713
37.1172
38.9311
40.8149
42.7708
44.8008
46.9068
49.0909
51.3551
53.7014
56.1316
58.6476
61.251
63.9436
66.7267
69.6017
72.5698
75.632
78.789
82.0414
85.3895
88.8332
92.3722
96.0061
99.7337
103.554
107.465
111.465
115.552
119.722
123.973
128.301
132.702
137.172
141.707
146.3
150.948
155.643
160.38
165.153
169.956
174.78
179.619
184.465
189.311
194.148
198.969
203.763
208.524
213.242
217.909
222.516
227.056
231.519
235.897
240.182
244.366
248.441
252.399
256.232
259.933
263.496
266.912
270.176
273.281
276.222
278.993
281.59
284.006
286.24
288.286
290.141
291.803
293.27
294.54
295.612
296.485
297.159
297.633
297.899
297.969
297.852
297.541
297.038
296.347
295.472
294.415
293.181
291.775
290.2
288.463
286.569
284.523
282.332
280.002
277.54
274.952
272.244
269.425
266.5
263.478
260.365
257.169
253.896
250.554
247.151
243.693
240.187
236.641
233.062
229.456
225.83
222.193
218.55
214.913
211.29
207.692
204.124
200.589
197.09
193.632
190.22
186.861
183.565
180.343
177.213
174.197
171.323
168.634
166.108
163.61
6.43164
2.9112
2.31665
2.18682
2.20275
2.29519
2.43635
2.61398
2.82166
3.05543
3.31249
3.59067
3.88823
4.20388
4.53672
4.88622
5.25217
5.63495
6.03549
6.45485
6.89433
7.35549
7.84021
8.35005
8.88617
9.45017
10.0438
10.6686
11.3265
12.019
12.7478
13.5144
14.3204
15.1674
16.0568
16.9904
17.9694
18.9957
20.0707
21.1963
22.3745
23.6073
24.8975
26.2475
27.6581
29.1306
30.6671
32.2705
33.9432
35.6877
37.5064
39.4018
41.3765
43.433
45.5738
47.8017
50.1191
52.5286
55.0327
57.6339
60.3344
63.1365
66.0423
69.0537
72.1725
75.4003
78.7383
82.1876
85.7489
89.4227
93.2092
97.1079
101.118
105.239
109.47
113.807
118.249
122.793
127.436
132.174
137.003
141.918
146.913
151.984
157.125
162.328
167.587
172.895
178.243
183.625
189.032
194.455
199.885
205.313
210.729
216.124
221.488
226.81
232.082
237.293
242.434
247.494
252.466
257.337
262.101
266.746
271.265
275.648
279.887
283.973
287.899
291.657
295.239
298.639
301.851
304.868
307.686
310.298
312.701
314.891
316.865
318.619
320.152
321.462
322.548
323.41
324.049
324.46
324.641
324.608
324.358
323.891
323.212
322.324
321.231
319.937
318.447
316.766
314.901
312.857
310.641
308.26
305.72
303.029
300.194
297.223
294.124
290.904
287.572
284.135
280.603
276.982
273.281
269.509
265.673
261.78
257.84
253.86
249.847
245.809
241.754
237.689
233.621
229.561
225.517
221.497
217.509
213.558
209.649
205.787
201.979
198.233
194.56
190.972
187.487
184.125
180.913
177.884
175.007
172.131
6.93851
3.14628
2.48625
2.33077
2.33171
2.41365
2.54579
2.71448
2.91264
3.13602
3.3818
3.64793
3.93278
4.23519
4.55492
4.89203
5.24716
5.62049
6.01203
6.42259
6.85332
7.30556
7.78065
8.28011
8.80565
9.35899
9.94209
10.5568
11.2049
11.8883
12.6086
13.3678
14.1675
15.0097
15.8961
16.8286
17.8093
18.84
19.923
21.0605
22.2548
23.5082
24.8227
26.2005
27.6446
29.1587
30.7449
32.4061
34.1456
35.9663
37.8712
39.8634
41.946
44.1221
46.3949
48.7678
51.2439
53.8263
56.5182
59.3225
62.2421
65.2799
68.4384
71.72
75.1268
78.6608
82.3235
86.1162
90.0398
94.0949
98.2815
102.599
107.047
111.624
116.328
121.157
126.108
131.177
136.361
141.654
147.052
152.549
158.138
163.814
169.568
175.393
181.281
187.223
193.21
199.233
205.281
211.345
217.414
223.476
229.522
235.54
241.519
247.446
253.312
259.105
264.814
270.428
275.935
281.326
286.59
291.717
296.696
301.517
306.172
310.65
314.944
319.044
322.944
326.635
330.11
333.364
336.39
339.184
341.741
344.056
346.126
347.949
349.523
350.846
351.918
352.738
353.309
353.624
353.692
353.515
353.094
352.435
351.541
350.417
349.066
347.495
345.708
343.713
341.516
339.124
336.545
333.786
330.856
327.762
324.514
321.12
317.588
313.928
310.149
306.259
302.268
298.185
294.019
289.779
285.473
281.111
276.701
272.252
267.772
263.269
258.751
254.226
249.703
245.19
240.696
236.23
231.798
227.409
223.067
218.78
214.555
210.402
206.332
202.357
198.494
194.765
191.19
187.801
184.553
181.293
7.32405
3.33162
2.61688
2.43642
2.42309
2.49335
2.61495
2.7731
2.96016
3.17159
3.40459
3.65776
3.93038
4.22204
4.53121
4.85735
5.20015
5.55975
5.9372
6.33372
6.75052
7.18893
7.65038
8.13656
8.64941
9.19076
9.76231
10.3659
11.0035
11.6769
12.3883
13.1398
13.9333
14.771
15.6553
16.5883
17.5724
18.6102
19.7043
20.8573
22.072
23.3514
24.6983
26.1159
27.6076
29.1755
30.8225
32.5545
34.376
36.2906
38.3017
40.4129
42.6279
44.9507
47.3851
49.935
52.6043
55.3968
58.3163
61.3663
64.5503
67.8714
71.3329
74.9374
78.6875
82.5853
86.6325
90.8305
95.1802
99.682
104.336
109.141
114.096
119.2
124.449
129.841
135.372
141.037
146.832
152.751
158.787
164.934
171.184
177.529
183.961
190.469
197.044
203.676
210.355
217.068
223.805
230.554
237.302
244.038
250.747
257.419
264.04
270.596
277.077
283.468
289.758
295.935
301.985
307.899
313.663
319.266
324.698
329.948
335.005
339.86
344.502
348.924
353.116
357.072
360.783
364.242
367.445
370.386
373.059
375.462
377.59
379.441
381.014
382.308
383.322
384.056
384.513
384.692
384.597
384.23
383.594
382.697
381.542
380.136
378.483
376.588
374.461
372.107
369.535
366.752
363.767
360.59
357.229
353.694
349.993
346.138
342.137
338.001
333.739
329.362
324.88
320.302
315.639
310.901
306.097
301.236
296.328
291.383
286.409
281.416
276.411
271.403
266.401
261.414
256.449
251.517
246.625
241.781
236.991
232.264
227.608
223.032
218.549
214.172
209.917
205.803
201.85
198.084
194.455
190.81
7.59256
3.46811
2.70971
2.50661
2.4792
2.53705
2.64698
2.79324
2.96842
3.16862
3.39136
3.63389
3.89439
4.17136
4.46481
4.77489
5.10188
5.44664
5.81
6.19281
6.59617
7.02144
7.47009
7.94381
8.4444
8.97373
9.53375
10.1265
10.754
11.4186
12.1226
12.8683
13.6582
14.495
15.3813
16.3198
17.3136
18.3658
19.4794
20.6576
21.9039
23.2221
24.6161
26.0883
27.6407
29.2785
31.0093
32.8371
34.7667
36.8044
38.9539
41.2193
43.605
46.1158
48.7562
51.5309
54.4445
57.5012
60.7055
64.0614
67.5729
71.2436
75.0768
79.0756
83.2426
87.5798
92.0891
96.7716
101.628
106.658
111.861
117.236
122.781
128.493
134.368
140.404
146.593
152.932
159.414
166.03
172.775
179.639
186.613
193.687
200.851
208.094
215.405
222.771
230.18
237.619
245.074
252.533
259.982
267.406
274.791
282.123
289.389
296.572
303.661
310.64
317.497
324.218
330.789
337.198
343.432
349.48
355.329
360.967
366.385
371.571
376.516
381.21
385.645
389.812
393.703
397.313
400.636
403.665
406.397
408.827
410.954
412.773
414.286
415.49
416.386
416.975
417.26
417.244
416.932
416.314
415.408
414.217
412.749
411.008
409.001
406.735
404.217
401.458
398.465
395.248
391.816
388.179
384.348
380.333
376.144
371.793
367.29
362.646
357.872
352.979
347.978
342.88
337.696
332.436
327.11
321.73
316.305
310.845
305.36
299.859
294.351
288.845
283.35
277.875
272.428
267.019
261.656
256.348
251.101
245.925
240.829
235.824
230.92
226.131
221.474
216.966
212.625
208.473
204.458
200.432
7.75536
3.55955
2.76783
2.54477
2.50359
2.54865
2.64714
2.78382
2.94925
3.13805
3.34663
3.57377
3.81849
4.08047
4.35949
4.65548
4.96873
5.29988
5.64975
6.01935
6.40986
6.82266
7.25934
7.72162
8.21142
8.73077
9.2818
9.86681
10.4882
11.1486
11.8506
12.5973
13.3916
14.2365
15.1352
16.0912
17.1081
18.1902
19.3412
20.5643
21.863
23.2396
24.6973
26.2441
27.8875
29.6337
31.4876
33.4546
35.5404
37.7515
40.093
42.5702
45.1884
47.953
50.8694
53.943
57.1788
60.5817
64.1564
67.9073
71.8385
75.9537
80.2562
84.749
89.4343
94.3139
99.389
104.66
110.127
115.788
121.643
127.689
133.922
140.338
146.933
153.701
160.635
167.728
174.972
182.358
189.876
197.517
205.268
213.12
221.058
229.071
237.146
245.267
253.422
261.595
269.772
277.938
286.076
294.173
302.212
310.177
318.054
325.827
333.48
341
348.37
355.578
362.609
369.45
376.088
382.509
388.701
394.653
400.354
405.792
410.958
415.842
420.434
424.729
428.716
432.392
435.748
438.781
441.487
443.862
445.903
447.609
448.98
450.015
450.715
451.084
451.124
450.847
450.235
449.303
448.06
446.514
444.671
442.536
440.119
437.426
434.468
431.254
427.794
424.098
420.177
416.042
411.704
407.174
402.465
397.588
392.555
387.377
382.067
376.636
371.097
365.46
359.738
353.941
348.081
342.169
336.216
330.232
324.227
318.21
312.193
306.183
300.19
294.223
288.29
282.402
276.567
270.793
265.09
259.465
253.929
248.492
243.166
237.964
232.903
227.999
223.267
218.727
214.327
209.93
7.80993
3.6064
2.79352
2.55442
2.5019
2.53762
2.62624
2.7502
2.90161
3.07601
3.27104
3.48487
3.71645
3.96528
4.23119
4.51431
4.81505
5.13408
5.4723
5.83083
6.21097
6.61427
7.04245
7.49748
7.98151
8.49693
9.04619
9.63192
10.2569
10.9243
11.6373
12.3997
13.2159
14.0888
15.0222
16.0197
17.0849
18.2197
19.4291
20.7203
22.0993
23.5729
25.1483
26.831
28.628
30.5461
32.5917
34.7716
37.0929
39.5622
42.186
44.9707
47.9227
51.0482
54.3532
57.8434
61.524
65.4
69.476
73.7561
78.2438
82.9426
87.8548
92.9825
98.3271
103.889
109.669
115.664
121.875
128.297
134.928
141.764
148.798
156.026
163.44
171.033
178.796
186.719
194.793
203.006
211.348
219.805
228.365
237.014
245.738
254.523
263.354
272.215
281.091
289.965
298.821
307.644
316.415
325.12
333.741
342.262
350.666
358.938
367.062
375.023
382.805
390.393
397.774
404.933
411.857
418.534
424.95
431.095
436.956
442.524
447.788
452.738
457.367
461.667
465.631
469.252
472.526
475.447
478.014
480.222
482.07
483.557
484.683
485.45
485.857
485.913
485.631
484.989
483.999
482.673
481.019
479.046
476.76
474.168
471.279
468.104
464.652
460.934
456.96
452.743
448.293
443.624
438.746
433.673
428.417
422.99
417.406
411.677
405.815
399.833
393.744
387.559
381.292
374.954
368.556
362.111
355.629
349.122
342.599
336.07
329.547
323.038
316.553
310.1
303.69
297.33
291.031
284.801
278.648
272.583
266.614
260.754
255.013
249.406
243.946
238.651
233.532
228.611
223.834
219.079
7.79486
3.61703
2.7932
2.54501
2.48319
2.5064
2.58184
2.6934
2.83281
2.99537
3.17847
3.38051
3.60059
3.83831
4.09361
4.36676
4.65833
4.96918
5.30043
5.65341
6.02966
6.43096
6.85937
7.31723
7.80727
8.33292
8.89709
9.50261
10.1529
10.8514
11.6016
12.4062
13.2673
14.1922
15.1869
16.2572
17.4089
18.6494
19.9849
21.4216
22.9666
24.6281
26.4141
28.332
30.3895
32.5946
34.9549
37.4782
40.1723
43.0457
46.1059
49.3608
52.8172
56.4813
60.3592
64.4561
68.7766
73.3244
78.1029
83.1146
88.3616
93.8453
99.5663
105.525
111.719
118.148
124.809
131.699
138.813
146.147
153.693
161.446
169.398
177.54
185.862
194.355
203.008
211.81
220.747
229.808
238.978
248.244
257.591
267.003
276.467
285.965
295.481
304.999
314.503
323.975
333.399
342.757
352.032
361.208
370.267
379.194
387.971
396.583
405.013
413.247
421.269
429.064
436.62
443.921
450.956
457.711
464.175
470.336
476.183
481.707
486.897
491.746
496.245
500.387
504.167
507.578
510.616
513.278
515.56
517.462
518.982
520.119
520.878
521.257
521.254
520.91
520.172
519.071
517.614
515.807
513.66
511.182
508.381
505.264
501.843
498.128
494.13
489.86
485.33
480.553
475.542
470.308
464.866
459.227
453.406
447.415
441.269
434.98
428.561
422.026
415.387
408.658
401.851
394.979
388.052
381.084
374.086
367.069
360.042
353.018
346.006
339.015
332.056
325.136
318.266
311.454
304.71
298.042
291.46
284.973
278.59
272.324
266.185
260.187
254.345
248.672
243.18
237.891
232.752
227.662
7.75015
3.60999
2.77942
2.51918
2.44578
2.4584
2.52354
2.62488
2.75422
2.90715
3.08117
3.2749
3.48764
3.71915
3.96956
4.2394
4.52954
4.84129
5.17659
5.53729
5.92507
6.34214
6.79104
7.27443
7.79474
8.3533
8.95437
9.6037
10.3064
11.0677
11.893
12.7887
13.7622
14.8191
15.9663
17.2115
18.5629
20.0295
21.62
23.3429
25.2073
27.2226
29.3982
31.7434
34.2672
36.9785
39.886
42.9978
46.3209
49.8608
53.6284
57.6358
61.8872
66.3869
71.1403
76.1502
81.4177
86.9431
92.7257
98.7644
105.058
111.603
118.396
125.435
132.714
140.227
147.969
155.933
164.11
172.493
181.072
189.838
198.781
207.889
217.15
226.554
236.086
245.733
255.483
265.32
275.23
285.198
295.209
305.247
315.296
325.34
335.362
345.346
355.276
365.134
374.904
384.569
394.113
403.52
412.772
421.855
430.753
439.449
447.93
456.18
464.186
471.933
479.409
486.6
493.495
500.082
506.349
512.287
517.886
523.135
528.027
532.554
536.709
540.486
543.879
546.885
549.5
551.721
553.546
554.975
556.008
556.641
556.888
556.745
556.229
555.314
554.022
552.36
550.334
547.953
545.227
542.166
538.778
535.071
531.058
526.75
522.159
517.297
512.176
506.811
501.212
495.395
489.373
483.159
476.767
470.211
463.505
456.661
449.695
442.619
435.446
428.19
420.863
413.478
406.047
398.582
391.095
383.596
376.096
368.606
361.136
353.695
346.293
338.939
331.641
324.409
317.252
310.178
303.197
296.318
289.552
282.908
276.398
270.036
263.835
257.808
251.967
246.333
240.855
235.457
7.65769
3.58298
2.74765
2.47947
2.39874
2.40371
2.46169
2.55663
2.68061
2.82948
3.00116
3.19488
3.4105
3.64783
3.90737
4.19004
4.49705
4.82956
5.1881
5.57491
5.99424
6.44997
6.94612
7.48708
8.07787
8.72484
9.43386
10.2111
11.0637
11.9996
13.0273
14.1563
15.3967
16.758
18.2504
19.8845
21.6716
23.6235
25.7515
28.0668
30.5804
33.3031
36.2455
39.4175
42.8285
46.4866
50.3992
54.5731
59.0135
63.7234
68.7059
73.9595
79.4881
85.2967
91.3978
97.7847
104.448
111.38
118.572
126.014
133.7
141.621
149.768
158.132
166.703
175.473
184.431
193.567
202.871
212.331
221.936
231.675
241.537
251.508
261.577
271.731
281.957
292.242
302.571
312.932
323.311
333.692
344.062
354.406
364.709
374.956
385.132
395.222
405.21
415.082
424.822
434.416
443.848
453.104
462.169
471.029
479.67
488.078
496.24
504.143
511.773
519.119
526.168
532.91
539.333
545.427
551.183
556.591
561.642
566.328
570.641
574.577
578.128
581.288
584.056
586.428
588.397
589.97
591.138
591.904
592.277
592.229
591.836
591.01
589.805
588.218
586.254
583.921
581.226
578.18
574.794
571.077
567.035
562.682
558.028
553.085
547.866
542.384
536.651
530.682
524.488
518.084
511.484
504.702
497.751
490.645
483.399
476.025
468.539
460.952
453.279
445.532
437.723
429.867
421.973
414.055
406.124
398.19
390.264
382.356
374.475
366.632
358.836
351.094
343.417
335.812
328.288
320.854
313.519
306.292
299.183
292.202
285.361
278.671
272.147
265.801
259.643
253.697
247.91
242.241
7.55498
3.53397
2.70303
2.43401
2.3518
2.35624
2.41629
2.51579
2.64707
2.80626
2.99127
3.20054
3.4337
3.6928
3.97977
4.2969
4.64706
5.03375
5.46168
5.93584
6.46137
7.04487
7.69388
8.4168
9.223
10.1232
11.1287
12.2516
13.5048
14.9018
16.4571
18.186
20.1042
22.2274
24.5704
27.1477
29.9733
33.061
36.4236
40.0716
44.0135
48.2567
52.8081
57.6737
62.8555
68.3528
74.1646
80.2916
86.7306
93.471
100.501
107.805
115.372
123.192
131.248
139.557
148.103
156.858
165.806
174.928
184.213
193.646
203.216
212.911
222.72
232.632
242.637
252.725
262.886
273.11
283.388
293.71
304.067
314.448
324.844
335.245
345.64
356.019
366.372
376.687
386.954
397.161
407.296
417.348
427.305
437.156
446.887
456.487
465.943
475.243