/*--------------------------------*- C++ -*----------------------------------*\
| =========                 |                                                 |
| \\      /  F ield         | OpenFOAM: The Open Source CFD Toolbox           |
|  \\    /   O peration     | Version:  5.x                                   |
|   \\  /    A nd           | Web:      www.OpenFOAM.org                      |
|    \\/     M anipulation  |                                                 |
\*---------------------------------------------------------------------------*/
FoamFile
{
    version     2.0;
    format      ascii;
    class       volScalarField;
    location    "1000";
    object      k;
}
// * * * * * * * * * * * * * * * * * * * * * * * * * * * * * * * * * * * * * //

dimensions      [0 2 -2 0 0 0 0];

internalField   nonuniform List<scalar> 
12225
(
0.362428
0.343828
0.327055
0.309339
0.294671
0.283249
0.275173
0.271251
0.27156
0.274674
0.279693
0.285489
0.295589
0.30252
0.314198
0.321501
0.335418
0.339632
0.443855
0.475199
0.467987
0.456048
0.458849
0.468079
0.487111
0.513519
0.541983
0.572173
0.602964
0.630356
0.659353
0.680875
0.707144
0.721775
0.746168
0.753504
0.390784
0.420001
0.423311
0.42026
0.415162
0.411683
0.412189
0.414413
0.419773
0.4271
0.436971
0.446592
0.458534
0.469059
0.481162
0.492178
0.50256
0.514728
0.377375
0.386528
0.39155
0.391905
0.391031
0.389021
0.38699
0.385475
0.384422
0.384448
0.384914
0.385911
0.387767
0.389874
0.392268
0.395388
0.39768
0.401661
0.374369
0.375513
0.377732
0.378177
0.377875
0.377014
0.375515
0.373898
0.37229
0.370795
0.369608
0.368454
0.367669
0.367016
0.366556
0.366325
0.366148
0.366311
0.373795
0.372349
0.372051
0.371644
0.370987
0.370105
0.368966
0.367617
0.366221
0.364729
0.363345
0.361936
0.360651
0.359426
0.358283
0.357267
0.35625
0.355469
0.373808
0.371627
0.370033
0.368724
0.367528
0.366345
0.365151
0.363874
0.362592
0.361247
0.359934
0.358609
0.357325
0.356074
0.354857
0.353713
0.352575
0.351555
0.373831
0.37155
0.369556
0.367807
0.366245
0.364789
0.363419
0.362068
0.360756
0.359443
0.358162
0.356895
0.355657
0.354454
0.353276
0.352153
0.351043
0.350011
0.373835
0.371555
0.369439
0.367494
0.365719
0.364073
0.362545
0.36109
0.359707
0.358369
0.357078
0.355826
0.35461
0.353436
0.352292
0.351198
0.350124
0.349113
0.373832
0.371561
0.369418
0.367399
0.365515
0.36375
0.3621
0.360546
0.359078
0.357683
0.356352
0.355079
0.353857
0.352687
0.351557
0.350478
0.349429
0.348438
0.373829
0.371561
0.369413
0.367377
0.365454
0.363637
0.361922
0.360303
0.358772
0.357321
0.355943
0.354635
0.353387
0.352198
0.35106
0.349977
0.348933
0.347945
0.373828
0.371558
0.369408
0.367369
0.365436
0.363602
0.361864
0.360215
0.358652
0.357168
0.355758
0.354419
0.353145
0.351933
0.350777
0.349678
0.348625
0.347627
0.373827
0.371555
0.369403
0.367362
0.365425
0.363587
0.361842
0.360184
0.358608
0.357111
0.355686
0.354332
0.353042
0.351815
0.350645
0.349531
0.348468
0.347457
0.373826
0.371554
0.369399
0.367356
0.365417
0.363576
0.361828
0.360167
0.358587
0.357085
0.355655
0.354294
0.352998
0.351763
0.350586
0.349465
0.348395
0.347376
0.373826
0.371552
0.369396
0.367351
0.365411
0.363568
0.361818
0.360154
0.358572
0.357068
0.355635
0.354272
0.352973
0.351735
0.350555
0.34943
0.348357
0.347334
0.373825
0.371551
0.369394
0.367348
0.365406
0.363562
0.36181
0.360145
0.358562
0.357055
0.355621
0.354255
0.352955
0.351715
0.350534
0.349407
0.348332
0.347307
0.373825
0.371551
0.369393
0.367346
0.365403
0.363558
0.361805
0.360139
0.358554
0.357046
0.355611
0.354244
0.352942
0.351701
0.350518
0.34939
0.348314
0.347287
0.373825
0.37155
0.369393
0.367345
0.365402
0.363556
0.361803
0.360136
0.35855
0.357042
0.355606
0.354238
0.352935
0.351694
0.35051
0.349381
0.348304
0.347277
0.373825
0.37155
0.369393
0.367345
0.365402
0.363557
0.361803
0.360136
0.358551
0.357042
0.355606
0.354238
0.352935
0.351693
0.350509
0.34938
0.348303
0.347275
0.373825
0.371551
0.369393
0.367347
0.365404
0.363559
0.361805
0.360139
0.358554
0.357045
0.35561
0.354242
0.35294
0.351698
0.350515
0.349386
0.348309
0.347282
0.373825
0.371551
0.369395
0.367349
0.365407
0.363562
0.36181
0.360145
0.358561
0.357054
0.355621
0.354255
0.352955
0.351716
0.350536
0.349409
0.348336
0.347311
0.373826
0.371552
0.369396
0.367351
0.365411
0.36357
0.361822
0.360162
0.358586
0.357087
0.355663
0.354307
0.353017
0.351787
0.350616
0.349498
0.348433
0.347414
0.373826
0.371553
0.369398
0.367358
0.365429
0.363606
0.361882
0.360251
0.358705
0.357238
0.355843
0.354515
0.353248
0.352038
0.350883
0.349777
0.34872
0.347705
0.373827
0.371549
0.369411
0.367419
0.365561
0.363828
0.362199
0.360659
0.359193
0.357789
0.356442
0.355145
0.353895
0.352689
0.351528
0.350407
0.349329
0.348288
0.373814
0.371555
0.369597
0.367866
0.366291
0.364816
0.363387
0.361979
0.360583
0.359199
0.357831
0.356486
0.35517
0.353887
0.352646
0.351443
0.35029
0.349176
0.373752
0.371964
0.370924
0.369938
0.36894
0.367779
0.366428
0.36494
0.363369
0.361767
0.360172
0.358609
0.357102
0.355659
0.354297
0.353002
0.351801
0.35066
0.374118
0.375088
0.376552
0.376397
0.375758
0.374113
0.371997
0.369776
0.367557
0.365453
0.363518
0.361761
0.360229
0.358882
0.35773
0.356729
0.355941
0.355239
0.377887
0.390873
0.393896
0.392207
0.388462
0.383658
0.379513
0.376223
0.373571
0.371734
0.370564
0.370021
0.370102
0.370494
0.371224
0.372319
0.373756
0.37522
0.402951
0.419166
0.414447
0.403772
0.39521
0.389469
0.388451
0.389393
0.391733
0.396184
0.401494
0.407643
0.414061
0.420916
0.427658
0.434621
0.441275
0.448104
0.36672
0.354829
0.344191
0.333281
0.322854
0.312974
0.3042
0.29672
0.290259
0.284949
0.280668
0.277299
0.274792
0.272927
0.271785
0.271017
0.270889
0.271059
0.000446003
0.00269525
0.00507913
0.00716937
0.00910967
0.0113002
0.0138701
0.0170027
0.0208279
0.0253677
0.0305447
0.0362318
0.0422872
0.048583
0.0550061
0.0614659
0.0678833
0.0742015
0.0803708
0.0863673
0.0921647
0.097766
0.103156
0.108342
0.1133
0.118016
0.122429
0.126491
0.130114
0.133235
0.13578
0.137727
0.1388
0.13968
0.140926
0.14083
0.141236
0.139887
0.141446
0.142631
0.141683
0.136117
0.144728
0.149829
0.158447
0.16464
0.172841
0.18028
0.1884
0.196436
0.204769
0.213197
0.22182
0.230582
0.239512
0.248591
0.257831
0.267221
0.276766
0.286461
0.296307
0.306298
0.316436
0.326713
0.337129
0.347677
0.358355
0.369156
0.380075
0.391106
0.402243
0.413477
0.424803
0.436211
0.447693
0.459242
0.470845
0.482497
0.494184
0.505898
0.517627
0.529361
0.541087
0.552795
0.564471
0.576105
0.58768
0.599185
0.610604
0.62192
0.633118
0.644177
0.655076
0.665794
0.676308
0.6866
0.696661
0.70651
0.716226
0.725701
0.734963
0.743993
0.752789
0.761336
0.769628
0.777652
0.7854
0.79286
0.800023
0.806882
0.813426
0.819648
0.82554
0.831095
0.836305
0.841166
0.84567
0.849813
0.85359
0.856997
0.860031
0.86269
0.86497
0.866872
0.868394
0.869537
0.870302
0.870691
0.870706
0.870351
0.869613
0.868491
0.866909
0.865044
0.862916
0.860412
0.857522
0.854301
0.850747
0.846871
0.842681
0.838186
0.833397
0.828322
0.822971
0.817357
0.811488
0.805377
0.799035
0.792473
0.785704
0.77874
0.771594
0.764277
0.756802
0.749183
0.741432
0.733562
0.725586
0.717518
0.709374
0.701176
0.692963
0.684899
0.678431
0.674596
0.671137
0.667696
0.664245
0.660783
0.657311
0.65383
0.650334
0.646805
0.643211
0.639471
0.635429
0.630643
0.624118
0.599853
0.00234277
0.0102233
0.0156903
0.019743
0.0233001
0.0267595
0.0304655
0.0346367
0.0393827
0.0447139
0.0505693
0.0568514
0.0634505
0.070262
0.0771929
0.0841645
0.0911102
0.0979787
0.104729
0.11134
0.117798
0.124109
0.13028
0.136332
0.142271
0.148109
0.153826
0.159403
0.164796
0.169976
0.174939
0.179744
0.184565
0.189795
0.195975
0.203111
0.209086
0.21804
0.2264
0.234837
0.244628
0.254937
0.268494
0.281998
0.293932
0.305875
0.318668
0.33174
0.345207
0.35898
0.373088
0.387507
0.402245
0.417295
0.43266
0.448338
0.464331
0.480638
0.49726
0.514197
0.531448
0.549013
0.566889
0.585075
0.603567
0.622361
0.641453
0.660838
0.680509
0.700459
0.72068
0.741162
0.761897
0.782873
0.804078
0.8255
0.847125
0.86894
0.890928
0.913074
0.93536
0.95777
0.980284
1.00288
1.02555
1.04826
1.07099
1.09372
1.11643
1.13908
1.16166
1.18414
1.20648
1.22864
1.25059
1.27229
1.29368
1.31469
1.33525
1.35551
1.37548
1.39512
1.41444
1.4334
1.45198
1.47017
1.48794
1.50526
1.52213
1.53852
1.5544
1.56977
1.5846
1.59887
1.61257
1.62569
1.6382
1.65009
1.66135
1.67197
1.68193
1.69123
1.69986
1.7078
1.71506
1.72163
1.7275
1.73267
1.73714
1.74092
1.74399
1.74636
1.74783
1.74862
1.74896
1.74862
1.74751
1.74571
1.74325
1.74013
1.73636
1.73196
1.72695
1.72133
1.71512
1.70835
1.70102
1.69315
1.68477
1.6759
1.66655
1.65674
1.6465
1.63585
1.62482
1.61342
1.60168
1.58962
1.57727
1.56465
1.55179
1.53872
1.52546
1.5121
1.49896
1.48622
1.4735
1.46071
1.44787
1.435
1.42212
1.40922
1.39633
1.38343
1.3705
1.3575
1.34426
1.3307
1.31528
1.2813
0.00508124
0.0178731
0.0252576
0.0307242
0.0355684
0.0402985
0.0452057
0.0504691
0.0561791
0.0623514
0.0689467
0.0758945
0.0831122
0.0905192
0.0980425
0.10562
0.113202
0.12075
0.128237
0.135653
0.142996
0.150286
0.157547
0.16482
0.172143
0.179561
0.187109
0.194828
0.202761
0.210958
0.219487
0.228428
0.237932
0.248182
0.259257
0.270619
0.281927
0.294247
0.307477
0.321125
0.335495
0.350404
0.366286
0.382203
0.398168
0.414434
0.431147
0.448269
0.465794
0.483706
0.502005
0.520687
0.539751
0.559194
0.579018
0.599221
0.619803
0.640764
0.662104
0.68382
0.705912
0.728378
0.751213
0.774416
0.79798
0.821901
0.846173
0.870788
0.895738
0.921013
0.946605
0.9725
0.998688
1.02515
1.05189
1.07886
1.10608
1.1335
1.16113
1.18893
1.21688
1.24497
1.27318
1.30147
1.32982
1.35822
1.38663
1.41502
1.44337
1.47164
1.49981
1.52785
1.55573
1.5834
1.61085
1.63804
1.66493
1.69151
1.71776
1.74367
1.76921
1.79435
1.81907
1.84333
1.86711
1.89038
1.9131
1.93527
1.95684
1.97779
1.99809
2.01773
2.03668
2.05491
2.0724
2.08914
2.1051
2.12026
2.13461
2.14813
2.16081
2.17264
2.1836
2.19368
2.20287
2.21117
2.21858
2.22509
2.23069
2.23539
2.23919
2.24206
2.24392
2.24485
2.2451
2.24447
2.24291
2.24047
2.23716
2.23301
2.22804
2.22226
2.21568
2.20833
2.20022
2.19139
2.18184
2.17161
2.16072
2.14919
2.13705
2.12433
2.11106
2.09726
2.08296
2.0682
2.05299
2.03739
2.0214
2.00508
1.98844
1.97153
1.95439
1.93709
1.91982
1.90268
1.88553
1.86831
1.85104
1.83373
1.81641
1.7991
1.78183
1.76461
1.74744
1.73036
1.71329
1.69628
1.67792
1.64838
0.00830077
0.0252394
0.034405
0.041087
0.0469312
0.052552
0.0582685
0.0642649
0.0706356
0.0774069
0.0845562
0.092031
0.0997664
0.107697
0.115764
0.123919
0.132124
0.140354
0.148594
0.156845
0.16512
0.173448
0.181867
0.190432
0.199199
0.208234
0.217595
0.227339
0.23752
0.248177
0.259354
0.271077
0.283389
0.296336
0.309934
0.323983
0.338427
0.353594
0.369475
0.38594
0.402963
0.420495
0.438583
0.457015
0.475781
0.494917
0.514468
0.534446
0.554854
0.575693
0.596963
0.618666
0.640801
0.66337
0.686373
0.709811
0.733685
0.757994
0.782738
0.807916
0.833527
0.859569
0.886038
0.912932
0.940245
0.967972
0.996105
1.02464
1.05356
1.08286
1.11254
1.14257
1.17294
1.20364
1.23465
1.26595
1.29753
1.32936
1.36143
1.39371
1.42618
1.45881
1.49157
1.52445
1.5574
1.59041
1.62344
1.65646
1.68944
1.72234
1.75514
1.78779
1.82027
1.85255
1.88458
1.91635
1.94781
1.97893
2.00969
2.04005
2.06997
2.09943
2.12838
2.15679
2.18463
2.21187
2.23846
2.26438
2.2896
2.31409
2.3378
2.36073
2.38283
2.40409
2.42447
2.44395
2.46251
2.48013
2.49678
2.51245
2.52713
2.54078
2.55342
2.56501
2.57556
2.58505
2.59348
2.60084
2.60714
2.61238
2.61654
2.61961
2.62153
2.62235
2.62235
2.62126
2.61912
2.61594
2.61175
2.60657
2.60042
2.59332
2.58528
2.57635
2.56653
2.55585
2.54434
2.53203
2.51895
2.50512
2.49058
2.47537
2.4595
2.44302
2.42597
2.40837
2.39026
2.37168
2.35266
2.33325
2.31347
2.29338
2.27302
2.25247
2.23184
2.21122
2.19056
2.16982
2.14903
2.12821
2.10739
2.08662
2.06592
2.04535
2.02494
2.00478
1.98488
1.96538
1.94509
1.91791
0.0115949
0.0321836
0.0430004
0.0508005
0.0575262
0.0638848
0.0702346
0.0767786
0.0836266
0.0908229
0.0983647
0.10622
0.114341
0.122678
0.131185
0.139824
0.14857
0.157407
0.166331
0.175352
0.18449
0.193781
0.203269
0.213011
0.223069
0.233505
0.24438
0.255745
0.267643
0.280105
0.29315
0.306786
0.321019
0.335865
0.351333
0.367369
0.383935
0.401099
0.418867
0.437212
0.456105
0.47552
0.495453
0.515849
0.536693
0.557984
0.579732
0.601947
0.624635
0.647801
0.671447
0.695578
0.720196
0.745303
0.770903
0.796997
0.823587
0.850673
0.878257
0.906338
0.934916
0.96399
0.993556
1.02361
1.05415
1.08517
1.11667
1.14863
1.18104
1.2139
1.24719
1.2809
1.31502
1.34952
1.3844
1.41962
1.45517
1.49103
1.52717
1.56357
1.6002
1.63703
1.67403
1.71117
1.74841
1.78574
1.8231
1.86047
1.8978
1.93507
1.97223
2.00924
2.04608
2.08269
2.11905
2.15511
2.19084
2.22618
2.26112
2.29559
2.32956
2.363
2.39586
2.4281
2.45968
2.49056
2.52071
2.55009
2.57865
2.60637
2.63321
2.65913
2.68411
2.70811
2.73111
2.75307
2.77397
2.79379
2.8125
2.83009
2.84652
2.8618
2.8759
2.8888
2.90051
2.911
2.92028
2.92835
2.93519
2.94081
2.94521
2.94837
2.95022
2.9509
2.95052
2.94892
2.94613
2.94217
2.93707
2.93084
2.92351
2.9151
2.90563
2.89514
2.88365
2.8712
2.8578
2.8435
2.82832
2.81231
2.79549
2.77791
2.7596
2.7406
2.72095
2.70069
2.67986
2.6585
2.63665
2.61436
2.59166
2.56861
2.54526
2.52168
2.49796
2.47416
2.45029
2.42634
2.40234
2.37832
2.35433
2.33041
2.30662
2.28302
2.25971
2.23679
2.21438
2.19262
2.17053
2.14388
0.014764
0.0385259
0.0508271
0.0596438
0.0671581
0.0741552
0.0810307
0.0880093
0.0952191
0.102724
0.110542
0.118661
0.127053
0.135683
0.144519
0.153534
0.162711
0.172044
0.181536
0.191203
0.20107
0.211173
0.221558
0.232278
0.24339
0.254951
0.267013
0.279619
0.292806
0.306593
0.320994
0.336009
0.351636
0.367877
0.384733
0.402193
0.420236
0.438868
0.458086
0.477885
0.49825
0.519168
0.540631
0.562623
0.585134
0.608159
0.631701
0.655764
0.680354
0.705476
0.731135
0.757337
0.784086
0.811388
0.839245
0.867663
0.896643
0.926188
0.956301
0.986982
1.01823
1.05005
1.08244
1.11539
1.1489
1.18297
1.21759
1.25274
1.28843
1.32464
1.36136
1.39857
1.43626
1.4744
1.51299
1.55198
1.59138
1.63114
1.67124
1.71165
1.75234
1.79327
1.83443
1.87576
1.91723
1.9588
2.00044
2.0421
2.08374
2.12532
2.1668
2.20813
2.24927
2.29017
2.33079
2.37108
2.41099
2.45048
2.4895
2.528
2.56594
2.60327
2.63994
2.67592
2.71115
2.74558
2.77919
2.81192
2.84373
2.87458
2.90444
2.93326
2.96101
2.98765
3.01316
3.0375
3.06064
3.08256
3.10323
3.12262
3.14072
3.15751
3.17297
3.18709
3.19986
3.21126
3.2213
3.22997
3.23727
3.2432
3.24775
3.25093
3.25264
3.25309
3.25228
3.25011
3.24663
3.24184
3.23578
3.22846
3.21992
3.21017
3.19926
3.1872
3.17404
3.1598
3.14452
3.12824
3.11099
3.09281
3.07375
3.05384
3.03313
3.01165
2.98946
2.9666
2.94311
2.91904
2.89443
2.86934
2.8438
2.81788
2.79162
2.7651
2.73838
2.71154
2.6846
2.65757
2.63049
2.60341
2.57637
2.54945
2.5227
2.49623
2.47015
2.4446
2.41976
2.39577
2.37177
2.34447
0.017682
0.0441417
0.0577365
0.0674492
0.0756564
0.083206
0.0905248
0.0978567
0.105347
0.113077
0.121085
0.129378
0.137947
0.146773
0.155835
0.16512
0.174617
0.184327
0.19426
0.204435
0.214879
0.225627
0.236722
0.248212
0.260145
0.27257
0.285532
0.299067
0.313204
0.327961
0.343349
0.359367
0.376015
0.39329
0.411189
0.429708
0.448838
0.468577
0.488922
0.50987
0.531416
0.553555
0.576283
0.599594
0.623484
0.64795
0.672996
0.698624
0.72484
0.751651
0.779063
0.807083
0.835718
0.864974
0.894858
0.925374
0.956529
0.988325
1.02077
1.05386
1.0876
1.12199
1.15704
1.19273
1.22907
1.26606
1.30367
1.34192
1.38078
1.42025
1.46031
1.50094
1.54214
1.58387
1.62612
1.66885
1.71206
1.75569
1.79974
1.84415
1.8889
1.93395
1.97926
2.02479
2.0705
2.11634
2.16228
2.20825
2.25422
2.30014
2.34595
2.39161
2.43706
2.48225
2.52714
2.57166
2.61575
2.65938
2.70248
2.74499
2.78688
2.82808
2.86855
2.90823
2.94708
2.98504
3.02207
3.05811
3.09312
3.12707
3.15989
3.19156
3.22203
3.25126
3.27922
3.30587
3.33119
3.35514
3.37769
3.39882
3.41851
3.43674
3.4535
3.46875
3.48251
3.49475
3.50547
3.51467
3.52236
3.52852
3.53316
3.53629
3.53781
3.53796
3.53665
3.53387
3.52963
3.52396
3.5169
3.50845
3.49866
3.48754
3.47515
3.4615
3.44664
3.4306
3.41343
3.39515
3.37583
3.35549
3.33418
3.31195
3.28885
3.26492
3.24021
3.21477
3.18865
3.1619
3.13457
3.10671
3.07838
3.04962
3.0205
2.99108
2.96143
2.93162
2.90168
2.87165
2.84158
2.81151
2.78151
2.75165
2.72203
2.69276
2.66397
2.63584
2.60855
2.58227
2.55618
2.52746
0.0202611
0.048955
0.0636388
0.074112
0.0829078
0.0909238
0.0986107
0.106227
0.113933
0.121824
0.129956
0.138355
0.147026
0.155966
0.165168
0.174627
0.184342
0.19432
0.204573
0.215123
0.225998
0.23723
0.248858
0.260923
0.273467
0.286531
0.300152
0.314361
0.329182
0.344634
0.360726
0.377462
0.394843
0.412867
0.431533
0.450839
0.470782
0.491361
0.512577
0.534429
0.556919
0.580046
0.603811
0.628213
0.653254
0.678934
0.705259
0.732232
0.759861
0.788154
0.81712
0.846767
0.877104
0.908139
0.939881
0.972337
1.00551
1.03942
1.07406
1.10943
1.14555
1.18241
1.22002
1.25837
1.29746
1.33728
1.37784
1.41912
1.46111
1.50381
1.54718
1.59122
1.63591
1.68123
1.72714
1.77362
1.82065
1.86818
1.91619
1.96464
2.01348
2.06267
2.11217
2.16194
2.21192
2.26207
2.31233
2.36266
2.41299
2.46326
2.51344
2.56344
2.61323
2.66273
2.71188
2.76063
2.80892
2.85667
2.90384
2.95036
2.99618
3.04123
3.08547
3.12883
3.17126
3.2127
3.2531
3.29241
3.33058
3.36755
3.40329
3.43774
3.47086
3.50261
3.53295
3.56184
3.58926
3.61516
3.63952
3.66231
3.68352
3.70311
3.72107
3.73738
3.75204
3.76504
3.77637
3.78602
3.79401
3.80033
3.80499
3.80798
3.80928
3.80904
3.80719
3.80373
3.79869
3.79209
3.78397
3.77435
3.76327
3.75076
3.73685
3.72159
3.70501
3.68716
3.66808
3.64781
3.6264
3.6039
3.58035
3.55582
3.53034
3.50397
3.47676
3.44877
3.42005
3.39065
3.36064
3.33005
3.29896
3.26741
3.23547
3.2032
3.17068
3.13796
3.10509
3.07212
3.03912
3.00613
2.97323
2.94052
2.90808
2.87605
2.84459
2.81389
2.78415
2.7555
2.72719
2.69676
0.0224481
0.0529373
0.0684998
0.0795897
0.0888634
0.0972562
0.105237
0.113074
0.120937
0.128937
0.13714
0.145588
0.154301
0.16329
0.172559
0.182112
0.191955
0.202101
0.212565
0.223368
0.234538
0.246106
0.258104
0.27057
0.283539
0.297046
0.311121
0.325793
0.341082
0.357007
0.373579
0.390805
0.408691
0.427237
0.446446
0.46632
0.486859
0.508066
0.529946
0.552502
0.575738
0.599659
0.624271
0.649577
0.675583
0.702296
0.729721
0.757866
0.786742
0.816357
0.846723
0.877851
0.909752
0.942437
0.975916
1.0102
1.0453
1.08121
1.11796
1.15555
1.19397
1.23324
1.27335
1.31431
1.35612
1.39876
1.44224
1.48655
1.53166
1.57758
1.62428
1.67174
1.71994
1.76886
1.81846
1.86872
1.9196
1.97106
2.02307
2.07557
2.12854
2.18191
2.23563
2.28966
2.34395
2.39842
2.45303
2.50771
2.56241
2.61705
2.67158
2.72592
2.78002
2.83381
2.88721
2.94016
2.99258
3.04443
3.09561
3.14608
3.19577
3.24461
3.29254
3.33951
3.38544
3.43027
3.47396
3.51645
3.55767
3.59757
3.63611
3.67324
3.70891
3.74306
3.77567
3.8067
3.8361
3.86384
3.8899
3.91424
3.93684
3.95768
3.97674
3.99401
4.00947
4.02312
4.03495
4.04497
4.05317
4.05956
4.06415
4.06694
4.06793
4.06723
4.06477
4.06057
4.05467
4.0471
4.03788
4.02706
4.01465
4.00071
3.98528
3.96839
3.95008
3.93041
3.90943
3.88717
3.86369
3.83905
3.8133
3.78648
3.75866
3.72989
3.70023
3.66973
3.63846
3.60647
3.57382
3.54056
3.50677
3.47249
3.4378
3.40275
3.36741
3.33186
3.29614
3.26032
3.22446
3.18864
3.15292
3.11741
3.08223
3.04751
3.01342
2.98016
2.94794
2.91687
2.88624
2.85407
0.0242159
0.0560951
0.072331
0.0838933
0.0935317
0.10221
0.110408
0.118402
0.126369
0.134428
0.142656
0.151106
0.159811
0.168794
0.178067
0.187643
0.197536
0.207762
0.218338
0.229288
0.240635
0.252408
0.264638
0.277354
0.290589
0.30437
0.318727
0.333683
0.349261
0.365476
0.382345
0.399877
0.418082
0.436967
0.456537
0.476798
0.497756
0.519419
0.541793
0.564887
0.588709
0.613268
0.638575
0.664637
0.691466
0.719069
0.747459
0.776647
0.806645
0.837466
0.869125
0.901634
0.935007
0.969258
1.0044
1.04045
1.0774
1.11529
1.15411
1.19387
1.23457
1.27624
1.31885
1.36242
1.40695
1.45242
1.49883
1.54618
1.59445
1.64362
1.69367
1.74458
1.79633
1.84889
1.90221
1.95628
2.01104
2.06646
2.12249
2.17908
2.23618
2.29373
2.35169
2.40998
2.46855
2.52733
2.58626
2.64527
2.70428
2.76324
2.82206
2.88068
2.93901
2.997
3.05455
3.11159
3.16806
3.22387
3.27896
3.33325
3.38667
3.43915
3.49064
3.54105
3.59032
3.6384
3.68521
3.7307
3.77481
3.81748
3.85865
3.89828
3.93632
3.97271
4.00742
4.04041
4.07162
4.10104
4.12863
4.15436
4.1782
4.20014
4.22015
4.23823
4.25435
4.26852
4.28073
4.29099
4.29928
4.30564
4.31006
4.31256
4.31316
4.31192
4.30878
4.30379
4.29698
4.28838
4.27803
4.26597
4.25222
4.23684
4.21987
4.20135
4.18133
4.15986
4.13699
4.11278
4.08728
4.06054
4.03262
4.00358
3.97348
3.94237
3.91033
3.8774
3.84366
3.80916
3.77396
3.73813
3.70172
3.66481
3.62745
3.58972
3.55168
3.5134
3.47494
3.43638
3.39778
3.35921
3.32078
3.28258
3.24473
3.20739
3.17073
3.13496
3.10025
3.06675
3.03376
2.99963
0.0255602
0.0584638
0.0751813
0.0870767
0.0969679
0.10584
0.11418
0.122267
0.130283
0.138353
0.146562
0.154971
0.163625
0.172554
0.181782
0.191328
0.20121
0.211446
0.222053
0.233055
0.244475
0.256339
0.268674
0.281507
0.294866
0.308777
0.323266
0.338357
0.354072
0.370428
0.387444
0.405134
0.423512
0.442589
0.462378
0.482887
0.50413
0.526116
0.548857
0.572366
0.596655
0.621738
0.647628
0.674341
0.701891
0.730293
0.759561
0.789711
0.820759
0.852722
0.885617
0.919462
0.954272
0.990063
1.02685
1.06465
1.10347
1.14333
1.18423
1.22619
1.26921
1.3133
1.35845
1.40468
1.45197
1.50033
1.54973
1.60018
1.65165
1.70413
1.75758
1.812
1.86734
1.92357
1.98065
2.03855
2.09722
2.1566
2.21665
2.27731
2.33852
2.40023
2.46236
2.52485
2.58764
2.65064
2.7138
2.77702
2.84024
2.90337
2.96634
3.02907
3.09147
3.15347
3.21498
3.27593
3.33622
3.39579
3.45455
3.51243
3.56935
3.62524
3.68002
3.73363
3.786
3.83706
3.88673
3.93497
3.9817
4.02688
4.07043
4.11231
4.15246
4.19084
4.2274
4.2621
4.2949
4.32576
4.35465
4.38155
4.40643
4.42926
4.45003
4.46873
4.48534
4.49986
4.51229
4.52263
4.53089
4.53708
4.54121
4.54331
4.54342
4.54157
4.53768
4.53183
4.52405
4.51439
4.50288
4.48956
4.47446
4.45764
4.43915
4.41902
4.39732
4.37409
4.34939
4.32328
4.29582
4.26706
4.23706
4.20589
4.17361
4.14027
4.10595
4.07071
4.03462
3.99773
3.96011
3.92183
3.88295
3.84354
3.80366
3.76338
3.72277
3.68191
3.64086
3.5997
3.55849
3.51733
3.47631
3.43554
3.39515
3.3553
3.31616
3.27793
3.2408
3.20489
3.16956
3.13339
0.026496
0.060101
0.0771239
0.0892233
0.099262
0.10824
0.116645
0.12476
0.13277
0.140803
0.148953
0.157288
0.165858
0.174701
0.183844
0.193312
0.203124
0.213302
0.223865
0.234835
0.246233
0.258086
0.270417
0.283253
0.296619
0.31054
0.325041
0.340146
0.355879
0.372259
0.389309
0.407046
0.42549
0.444657
0.464565
0.48523
0.506668
0.528897
0.55193
0.575783
0.600474
0.626021
0.652441
0.679756
0.707986
0.737152
0.767272
0.798369
0.830463
0.863574
0.897723
0.93293
0.969214
1.00659
1.04508
1.0847
1.12546
1.16737
1.21045
1.2547
1.30013
1.34674
1.39454
1.44353
1.49369
1.54503
1.59752
1.65115
1.70591
1.76177
1.8187
1.87667
1.93565
1.99559
2.05644
2.11817
2.18072
2.24404
2.30806
2.37272
2.43796
2.50371
2.5699
2.63645
2.70329
2.77034
2.83752
2.90474
2.97193
3.03899
3.10585
3.17241
3.23859
3.3043
3.36945
3.43397
3.49776
3.56073
3.62282
3.68392
3.74398
3.8029
3.86061
3.91705
3.97213
4.02579
4.07796
4.12857
4.17756
4.22487
4.27043
4.3142
4.35613
4.39615
4.43423
4.47032
4.50438
4.53638
4.56628
4.59407
4.6197
4.64317
4.66445
4.68353
4.70041
4.71508
4.72753
4.73778
4.74584
4.75172
4.75543
4.75701
4.75652
4.75398
4.74925
4.74248
4.7337
4.72294
4.71024
4.69566
4.67922
4.66099
4.641
4.61932
4.596
4.57108
4.54464
4.51673
4.48741
4.45674
4.42479
4.39161
4.35729
4.32187
4.28543
4.24804
4.20976
4.17065
4.13079
4.09023
4.04906
4.00733
3.96511
3.92248
3.8795
3.83624
3.79279
3.74921
3.70559
3.66201
3.61858
3.57541
3.53263
3.49041
3.44891
3.40835
3.36889
3.33064
3.29303
3.25488
0.027063
0.0610832
0.07825
0.0904347
0.100523
0.109521
0.117919
0.126002
0.133959
0.141917
0.149973
0.158198
0.166647
0.175362
0.184377
0.193718
0.203409
0.213474
0.223934
0.234814
0.246137
0.25792
0.270185
0.282955
0.296255
0.310112
0.324551
0.339596
0.355274
0.371607
0.388621
0.406338
0.424782
0.443974
0.463938
0.484696
0.506272
0.528689
0.551978
0.576172
0.60128
0.627316
0.654288
0.682231
0.711177
0.741155
0.772191
0.804311
0.83754
0.871904
0.907426
0.944128
0.982029
1.02115
1.06151
1.10311
1.14598
1.19013
1.23557
1.28229
1.33032
1.37964
1.43027
1.48218
1.53538
1.58985
1.64557
1.70252
1.76067
1.82001
1.88048
1.94205
2.00469
2.06833
2.13294
2.19845
2.26481
2.33195
2.3998
2.46831
2.53739
2.60697
2.67697
2.74731
2.81791
2.88868
2.95954
3.0304
3.10117
3.17175
3.24207
3.31202
3.38152
3.45048
3.51879
3.58639
3.65317
3.71904
3.78393
3.84775
3.91042
3.97185
4.03198
4.09071
4.14799
4.20374
4.25789
4.31037
4.36112
4.41008
4.45718
4.50238
4.54562
4.58684
4.626
4.66307
4.69799
4.73075
4.76129
4.78961
4.81567
4.83945
4.86095
4.88014
4.89702
4.91158
4.92384
4.9338
4.94146
4.94686
4.95
4.95092
4.94977
4.9464
4.94077
4.93303
4.9232
4.91133
4.89745
4.88162
4.86388
4.84428
4.82287
4.79971
4.77486
4.74837
4.7203
4.69072
4.65969
4.62728
4.59354
4.55854
4.52236
4.48506
4.44671
4.40737
4.36712
4.32602
4.28414
4.24155
4.19831
4.1545
4.11019
4.06543
4.02032
3.97491
3.92929
3.88353
3.83773
3.79196
3.74634
3.70098
3.65602
3.61161
3.56794
3.52519
3.48353
3.44309
3.40332
3.3633
0.0272517
0.0614435
0.0786189
0.0907904
0.100845
0.109796
0.118132
0.12614
0.134009
0.141874
0.149835
0.157959
0.1663
0.174901
0.183798
0.193019
0.202588
0.212529
0.222862
0.233609
0.24479
0.256429
0.268549
0.281175
0.294333
0.308053
0.322361
0.337288
0.35286
0.369107
0.386058
0.403743
0.422191
0.441431
0.461493
0.482406
0.5042
0.526905
0.550541
0.575128
0.600703
0.6273
0.654929
0.683632
0.713449
0.744419
0.776569
0.809928
0.844527
0.880397
0.917561
0.956043
0.995861
1.03703
1.07957
1.12348
1.16879
1.21549
1.26359
1.31311
1.36402
1.41634
1.47005
1.52514
1.5816
1.6394
1.69852
1.75893
1.82059
1.88347
1.94752
2.0127
2.07896
2.14624
2.21447
2.28361
2.35357
2.4243
2.49572
2.56775
2.64031
2.71333
2.78672
2.86039
2.93426
3.00824
3.08223
3.15615
3.22991
3.3034
3.37654
3.44923
3.52138
3.5929
3.66369
3.73367
3.80274
3.87081
3.9378
4.00362
4.06819
4.13144
4.19327
4.25362
4.31242
4.36959
4.42506
4.47876
4.53064
4.58063
4.62867
4.67471
4.71869
4.76057
4.80029
4.83783
4.87313
4.90617
4.93692
4.96535
4.99144
5.01517
5.03653
5.0555
5.07208
5.08627
5.09808
5.10752
5.11459
5.11931
5.12172
5.12188
5.11998
5.11566
5.10907
5.10032
5.08943
5.07645
5.06142
5.04438
5.0254
5.00452
4.98179
4.95727
4.93103
4.90312
4.8736
4.84253
4.80999
4.77603
4.74073
4.70415
4.66636
4.62743
4.58742
4.54641
4.50446
4.46165
4.41804
4.3737
4.3287
4.28311
4.23699
4.19042
4.14346
4.0962
4.04871
4.00107
3.95337
3.90569
3.85815
3.81086
3.76397
3.71762
3.67199
3.62727
3.5836
3.54115
3.49939
3.45768
0.0271982
0.0613838
0.0784904
0.0905996
0.100587
0.109461
0.117708
0.125614
0.133367
0.141098
0.148904
0.156858
0.165018
0.17343
0.182134
0.191157
0.200526
0.210266
0.220397
0.230943
0.241927
0.253376
0.265318
0.277781
0.290792
0.304381
0.31858
0.333421
0.348938
0.365168
0.382145
0.399909
0.418493
0.437929
0.458254
0.479502
0.501712
0.524929
0.549174
0.57447
0.600838
0.628294
0.656933
0.686784
0.717879
0.750246
0.783926
0.818958
0.855382
0.89324
0.932551
0.973332
1.0156
1.05935
1.1046
1.15135
1.1996
1.24935
1.3006
1.35334
1.40757
1.46326
1.5204
1.57897
1.63895
1.70029
1.76296
1.82693
1.89214
1.95855
2.02612
2.09477
2.16446
2.23511
2.30667
2.37907
2.45222
2.52607
2.60052
2.67551
2.75094
2.82673
2.90281
2.97907
3.05544
3.13182
3.20811
3.28424
3.3601
3.4356
3.51066
3.58517
3.65904
3.73218
3.8045
3.87591
3.94633
4.01565
4.08381
4.15071
4.21627
4.28042
4.34308
4.40417
4.46363
4.52138
4.57735
4.63149
4.68372
4.73399
4.78225
4.82843
4.87248
4.91436
4.95402
4.99143
5.02655
5.05934
5.08978
5.11785
5.14352
5.16678
5.18761
5.20601
5.22197
5.23549
5.24659
5.25527
5.26154
5.26541
5.26694
5.26628
5.26345
5.25813
5.25055
5.24078
5.22884
5.21479
5.19867
5.18052
5.1604
5.13837
5.11447
5.08877
5.06132
5.03219
5.00144
4.96913
4.93533
4.90011
4.86353
4.82566
4.78656
4.74631
4.70498
4.66263
4.61933
4.57515
4.53016
4.48443
4.43802
4.391
4.34344
4.29541
4.24698
4.19823
4.14922
4.10005
4.05079
4.00154
3.95241
3.90351
3.85499
3.80699
3.75968
3.71324
3.66782
3.62359
3.58008
3.53692
0.0270424
0.0611191
0.0780504
0.0900018
0.099826
0.108527
0.116591
0.124306
0.131861
0.139388
0.146988
0.154741
0.162703
0.17092
0.179426
0.188253
0.197427
0.206974
0.21692
0.22729
0.238112
0.249416
0.261233
0.273597
0.286544
0.30011
0.314332
0.329247
0.344895
0.361318
0.37856
0.396675
0.415708
0.435692
0.456666
0.478666
0.501716
0.52581
0.551039
0.577465
0.60515
0.63416
0.664528
0.696284
0.72946
0.764085
0.800193
0.837813
0.87697
0.917682
0.959998
1.00395
1.04953
1.09672
1.14551
1.19587
1.2478
1.30128
1.35629
1.41282
1.47085
1.53033
1.59124
1.65354
1.71719
1.78215
1.84836
1.91579
1.98436
2.05404
2.12475
2.19643
2.26902
2.34246
2.41667
2.49157
2.56711
2.6432
2.71976
2.79672
2.87399
2.95149
3.02914
3.10686
3.18455
3.26213
3.33952
3.41662
3.49334
3.5696
3.64531
3.72037
3.79471
3.86822
3.94083
4.01245
4.08299
4.15237
4.22051
4.28733
4.35274
4.41668
4.47907
4.53984
4.59893
4.65625
4.71176
4.76538
4.81706
4.86674
4.91437
4.95988
5.00323
5.04438
5.08328
5.1199
5.15421
5.18616
5.21575
5.24293
5.26771
5.29006
5.30996
5.32742
5.34242
5.35498
5.3651
5.3728
5.37807
5.38094
5.38146
5.37997
5.37606
5.36973
5.36117
5.35041
5.33749
5.32245
5.30535
5.28623
5.26514
5.24214
5.21728
5.19063
5.16223
5.13216
5.10047
5.06723
5.0325
4.99635
4.95884
4.92005
4.88003
4.83885
4.79659
4.7533
4.70907
4.66394
4.618
4.5713
4.52391
4.4759
4.42734
4.37828
4.3288
4.27897
4.22887
4.17858
4.12817
4.07775
4.02742
3.97729
3.9275
3.8782
3.82954
3.78171
3.73485
3.68913
3.64414
3.59982
0.0267154
0.0605511
0.0772166
0.0889397
0.0985394
0.107016
0.114857
0.122351
0.12969
0.137008
0.144405
0.151955
0.159718
0.167739
0.176057
0.184705
0.193716
0.20312
0.212949
0.223234
0.23401
0.245313
0.25718
0.269652
0.282776
0.296608
0.311205
0.326602
0.342844
0.359977
0.378039
0.397047
0.417041
0.438119
0.460351
0.483795
0.508516
0.534599
0.562074
0.590991
0.621404
0.653364
0.686902