/*--------------------------------*- C++ -*----------------------------------*\
| =========                 |                                                 |
| \\      /  F ield         | OpenFOAM: The Open Source CFD Toolbox           |
|  \\    /   O peration     | Version:  5.x                                   |
|   \\  /    A nd           | Web:      www.OpenFOAM.org                      |
|    \\/     M anipulation  |                                                 |
\*---------------------------------------------------------------------------*/
FoamFile
{
    version     2.0;
    format      ascii;
    class       volScalarField;
    location    "1000";
    object      nut;
}
// * * * * * * * * * * * * * * * * * * * * * * * * * * * * * * * * * * * * * //

dimensions      [0 2 -1 0 0 0 0];

internalField   nonuniform List<scalar> 
12225
(
4.00441e-05
3.7989e-05
3.61366e-05
3.41786e-05
3.25589e-05
3.12937e-05
3.04062e-05
2.99684e-05
2.99617e-05
3.04387e-05
3.08579e-05
3.15698e-05
3.26359e-05
3.34259e-05
3.47222e-05
3.5364e-05
3.70597e-05
3.70654e-05
0.000331357
0.000213904
0.000178104
0.000157099
0.000145631
0.000137446
0.000132628
0.000131616
0.000129789
0.000130436
0.000129572
0.000129928
0.000129233
0.000129094
0.00012859
0.000128037
0.000127627
0.000127358
0.000677043
0.000454381
0.000358471
0.000311592
0.000276595
0.000251871
0.000232317
0.000217008
0.000202447
0.00019144
0.000181892
0.000174396
0.000168486
0.000162843
0.000159351
0.000154774
0.000152876
0.0001492
0.000810086
0.000703755
0.000585005
0.000511187
0.000459553
0.000421061
0.000389246
0.000363431
0.000340844
0.000320769
0.000303675
0.000286535
0.000274511
0.000260017
0.000251534
0.000239383
0.000233216
0.000223383
0.000843282
0.0008185
0.000756646
0.000695753
0.000644231
0.000601612
0.000566015
0.000534137
0.000508591
0.000482921
0.000463653
0.000441435
0.000426537
0.000407081
0.000395439
0.000378327
0.000369238
0.000354385
0.000851851
0.000844806
0.00082789
0.000802637
0.000771292
0.000739723
0.000711765
0.00068364
0.00066084
0.000636566
0.000618132
0.000596837
0.000581664
0.000562745
0.000550145
0.000533154
0.000522719
0.000507305
0.000852031
0.000851
0.00084712
0.000839848
0.000829116
0.000814744
0.000799576
0.000782296
0.000767152
0.000750076
0.000736057
0.000720057
0.00070751
0.000692699
0.000681692
0.000667913
0.000658519
0.000645427
0.000851901
0.000851397
0.00085072
0.000848304
0.000845001
0.000838835
0.000831851
0.000823492
0.000814862
0.000804637
0.000795513
0.00078511
0.000776137
0.000765945
0.000757579
0.000747739
0.000740134
0.000730444
0.000851846
0.000851334
0.000851146
0.000850288
0.000849359
0.000847219
0.000844495
0.000840675
0.00083661
0.000831428
0.00082627
0.000820456
0.000814566
0.000808633
0.000802787
0.000796722
0.000790915
0.000784766
0.000851824
0.000851328
0.000851067
0.000850605
0.00085026
0.000849556
0.000848717
0.000847341
0.000845817
0.000843734
0.000841504
0.000838814
0.00083607
0.000832898
0.000829953
0.000826406
0.000823507
0.000819535
0.000851803
0.000851351
0.000851011
0.000850614
0.000850311
0.000849927
0.00084958
0.000849069
0.000848541
0.000847798
0.000847019
0.000845984
0.000844966
0.000843631
0.000842439
0.000840833
0.000839559
0.000837707
0.00085179
0.000851363
0.00085099
0.000850609
0.000850279
0.000849935
0.000849639
0.000849311
0.000849016
0.000848661
0.000848332
0.000847911
0.000847526
0.000847015
0.000846565
0.000845958
0.000845448
0.000844751
0.000851783
0.000851365
0.00085098
0.000850605
0.00085026
0.000849921
0.000849613
0.000849307
0.000849029
0.000848745
0.000848487
0.000848214
0.000847966
0.000847694
0.000847445
0.000847167
0.000846911
0.000846622
0.000851781
0.000851365
0.000850973
0.000850599
0.000850248
0.000849911
0.000849594
0.000849289
0.000849003
0.000848727
0.000848467
0.000848215
0.000847978
0.000847746
0.000847528
0.000847313
0.000847108
0.000846908
0.00085178
0.000851364
0.000850969
0.000850595
0.00085024
0.000849902
0.000849581
0.000849276
0.000848985
0.000848708
0.000848444
0.000848192
0.000847952
0.000847722
0.000847503
0.000847293
0.000847093
0.000846901
0.000851779
0.000851363
0.000850967
0.000850591
0.000850234
0.000849895
0.000849572
0.000849265
0.000848973
0.000848694
0.000848428
0.000848174
0.000847932
0.0008477
0.000847479
0.000847268
0.000847065
0.000846872
0.000851779
0.000851362
0.000850965
0.000850588
0.000850231
0.00084989
0.000849566
0.000849258
0.000848964
0.000848684
0.000848417
0.000848162
0.000847918
0.000847685
0.000847462
0.000847249
0.000847046
0.000846851
0.000851779
0.000851362
0.000850965
0.000850587
0.000850229
0.000849888
0.000849564
0.000849255
0.00084896
0.000848679
0.000848411
0.000848155
0.000847911
0.000847677
0.000847453
0.00084724
0.000847035
0.000846839
0.000851779
0.000851362
0.000850965
0.000850588
0.000850229
0.000849889
0.000849564
0.000849255
0.00084896
0.000848679
0.000848411
0.000848155
0.00084791
0.000847676
0.000847452
0.000847238
0.000847033
0.000846836
0.000851779
0.000851362
0.000850966
0.000850589
0.000850231
0.000849891
0.000849567
0.000849258
0.000848964
0.000848683
0.000848415
0.000848159
0.000847914
0.00084768
0.000847455
0.00084724
0.000847033
0.000846835
0.000851779
0.000851363
0.000850967
0.000850592
0.000850234
0.000849896
0.000849572
0.000849265
0.00084897
0.00084869
0.000848418
0.000848159
0.000847905
0.000847662
0.000847421
0.000847191
0.000846959
0.000846738
0.000851778
0.000851366
0.000850968
0.000850598
0.000850239
0.000849905
0.000849575
0.000849263
0.000848943
0.000848633
0.000848304
0.00084798
0.000847626
0.000847278
0.000846893
0.000846519
0.000846098
0.000845702
0.000851776
0.000851373
0.000850968
0.000850612
0.000850232
0.000849862
0.000849423
0.000848944
0.000848352
0.000847705
0.000846922
0.000846093
0.00084512
0.000844131
0.000842994
0.00084189
0.000840621
0.000839454
0.000851793
0.000851402
0.000850958
0.000850518
0.000849762
0.000848792
0.000847321
0.000845521
0.000843297
0.000840834
0.000837988
0.000835044
0.000831794
0.000828596
0.000825125
0.000821858
0.000818286
0.0008151
0.000852042
0.000851311
0.000850234
0.000848123
0.000844332
0.000839422
0.000832785
0.000825825
0.000818255
0.00081042
0.000802249
0.000794384
0.000786345
0.000778853
0.000771187
0.000764267
0.000757033
0.000750793
0.000853327
0.000847475
0.000841112
0.0008282
0.000811771
0.000793878
0.000775415
0.000757769
0.000740646
0.000724936
0.000709825
0.000696217
0.000683018
0.000671322
0.00065974
0.000649684
0.000639395
0.00063078
0.000851081
0.000822438
0.000784975
0.000739118
0.000700435
0.000666321
0.000636266
0.000610669
0.000587839
0.000568263
0.000550328
0.000534893
0.000520329
0.000507893
0.000495665
0.000485406
0.000474952
0.000466401
0.000812689
0.00068663
0.000594626
0.000534892
0.000491047
0.000456226
0.000428793
0.000407007
0.000388413
0.000373194
0.0003597
0.000348519
0.000338354
0.000329772
0.000321356
0.000314743
0.000307971
0.000302526
0.000528495
0.000373306
0.000314901
0.000279547
0.000255713
0.000238587
0.000227996
0.00021988
0.000213295
0.000209068
0.000205588
0.000203145
0.000200899
0.000199395
0.000197769
0.000196757
0.000195476
0.000194826
8.19351e-05
7.92805e-05
7.69042e-05
7.44666e-05
7.21368e-05
6.99292e-05
6.79688e-05
6.62975e-05
6.48539e-05
6.36673e-05
6.27109e-05
6.19581e-05
6.1398e-05
6.09812e-05
6.07262e-05
6.05546e-05
6.05258e-05
6.0564e-05
1.40181e-07
3.89239e-06
7.32786e-06
1.03347e-05
1.31184e-05
1.62578e-05
1.99334e-05
2.44101e-05
2.98657e-05
3.63333e-05
4.36922e-05
5.17649e-05
6.03392e-05
6.92394e-05
7.82973e-05
8.7398e-05
9.64239e-05
0.000105315
0.000114
0.000122469
0.000130678
0.000138655
0.000146349
0.00015378
0.000160866
0.000167585
0.000173805
0.000179457
0.000184406
0.000188597
0.000191973
0.000194635
0.000196138
0.000198156
0.000202536
0.00020343
0.000199347
0.000197026
0.000198788
0.000199487
0.00019367
4.13592e-05
4.59599e-05
4.88375e-05
4.92637e-05
5.04123e-05
5.15932e-05
5.2669e-05
5.38103e-05
5.49098e-05
5.60257e-05
5.71288e-05
5.82331e-05
5.93318e-05
6.04279e-05
6.152e-05
6.26087e-05
6.36937e-05
6.4775e-05
6.58525e-05
6.6926e-05
6.79954e-05
6.90605e-05
7.01209e-05
7.11767e-05
7.2227e-05
7.32721e-05
7.4311e-05
7.53438e-05
7.63698e-05
7.73886e-05
7.83997e-05
7.94027e-05
8.03971e-05
8.13822e-05
8.23576e-05
8.33228e-05
8.42771e-05
8.522e-05
8.61511e-05
8.70696e-05
8.79751e-05
8.88668e-05
8.97443e-05
9.06069e-05
9.14542e-05
9.22852e-05
9.30995e-05
9.38963e-05
9.46749e-05
9.54343e-05
9.61737e-05
9.68919e-05
9.75877e-05
9.82603e-05
9.89086e-05
9.95326e-05
0.000100134
0.00010072
0.000101281
0.000101822
0.00010234
0.000102837
0.000103311
0.000103762
0.000104191
0.000104596
0.000104978
0.000105336
0.00010567
0.00010598
0.000106265
0.000106525
0.000106761
0.000106972
0.000107158
0.000107318
0.000107453
0.000107563
0.000107648
0.000107707
0.000107742
0.00010775
0.000107734
0.000107693
0.000107627
0.000107536
0.000107421
0.000107283
0.000107116
0.000106931
0.000106718
0.000106477
0.000106217
0.00010594
0.000105639
0.000105313
0.000104966
0.000104598
0.000104209
0.000103799
0.00010337
0.000102921
0.000102454
0.000101968
0.000101464
0.000100944
0.000100407
9.98537e-05
9.92854e-05
9.87025e-05
9.81055e-05
9.74953e-05
9.68724e-05
9.62376e-05
9.55915e-05
9.49349e-05
9.42685e-05
9.3593e-05
9.29093e-05
9.22183e-05
9.15213e-05
9.08209e-05
9.01277e-05
8.95374e-05
8.91195e-05
8.87254e-05
8.83315e-05
8.79359e-05
8.75385e-05
8.71395e-05
8.67389e-05
8.63362e-05
8.59303e-05
8.5519e-05
8.50971e-05
8.46539e-05
8.416e-05
8.35486e-05
8.17355e-05
7.36167e-07
2.22808e-05
5.15826e-05
7.21438e-05
8.52105e-05
9.37269e-05
0.000100436
0.000106986
0.000114225
0.000122454
0.000131654
0.000141652
0.000152212
0.000163105
0.000174124
0.000185099
0.000195884
0.000206364
0.000216441
0.000226048
0.000235131
0.000243666
0.000251629
0.000259016
0.000265804
0.00027197
0.000277464
0.000282262
0.000286149
0.000288548
0.000289159
0.000288201
0.000285614
0.000281454
0.000275417
0.000269683
0.000261093
0.000259371
0.000266999
0.000251143
0.000248796
0.000235233
0.000252112
0.000263048
0.000268596
0.000275788
0.000283119
0.00029095
0.00029881
0.000306884
0.000315038
0.000323317
0.000331677
0.000340129
0.000348658
0.000357269
0.000365958
0.000374726
0.000383573
0.0003925
0.000401507
0.000410597
0.000419769
0.000429024
0.000438361
0.000447781
0.000457283
0.000466864
0.000476524
0.000486261
0.000496071
0.000505952
0.0005159
0.000525912
0.000535982
0.000546107
0.000556281
0.000566498
0.000576754
0.000587042
0.000597357
0.000607691
0.000618039
0.000628395
0.000638752
0.000649105
0.000659446
0.000669772
0.000680075
0.000690351
0.000700593
0.000710794
0.000720941
0.000731016
0.000740988
0.000750804
0.000760366
0.000769513
0.000777958
0.000786241
0.000794393
0.000802414
0.000810297
0.00081804
0.000825637
0.000833081
0.000840368
0.000847491
0.000854446
0.000861228
0.000867831
0.00087425
0.000880481
0.00088652
0.000892361
0.000898002
0.000903437
0.000908664
0.000913679
0.000918478
0.000923059
0.000927419
0.000931556
0.000935467
0.000939151
0.000942607
0.000945835
0.000948835
0.00095161
0.000954153
0.000956504
0.00095866
0.00096036
0.000961832
0.000963242
0.000964472
0.000965406
0.000966103
0.000966575
0.000966823
0.000966852
0.000966664
0.000966263
0.000965651
0.000964834
0.000963815
0.000962598
0.000961189
0.000959591
0.000957811
0.000955853
0.000953724
0.000951428
0.000948973
0.000946365
0.000943609
0.000940713
0.000937682
0.000934523
0.000931241
0.000927838
0.000924313
0.000920637
0.000916648
0.000911537
0.000904712
0.000897304
0.000889695
0.000881988
0.000874219
0.000866403
0.000858547
0.000850651
0.000842708
0.000834694
0.000826558
0.000818146
0.000809192
0.000798252
0.000770291
1.5965e-06
3.78186e-05
8.33467e-05
0.000117861
0.000142762
0.000160778
0.000174446
0.000185812
0.000196305
0.000206776
0.000217631
0.000228974
0.000240737
0.000252775
0.00026492
0.000277007
0.000288888
0.000300435
0.000311542
0.00032213
0.000332145
0.000341562
0.00035038
0.000358609
0.00036625
0.000373273
0.000379584
0.000385011
0.000389538
0.00039349
0.000397032
0.000400105
0.000403168
0.000407101
0.000413062
0.000418537
0.000424313
0.000433295
0.000450534
0.000462249
0.000476305
0.000487575
0.000506547
0.000522534
0.000537807
0.000553589
0.00056952
0.000585756
0.000602148
0.000618731
0.000635464
0.000652353
0.000669382
0.000686554
0.000703863
0.000721312
0.000738899
0.000756628
0.000774497
0.000792509
0.000810663
0.000828961
0.0008474
0.000865982
0.000884702
0.000903561
0.000922553
0.000941675
0.000960923
0.000980291
0.000999771
0.00101936
0.00103904
0.00105882
0.00107868
0.0010986
0.00111859
0.00113863
0.00115871
0.00117882
0.00119894
0.00121906
0.00123918
0.00125927
0.00127932
0.00129933
0.00131928
0.00133915
0.00135893
0.00137861
0.00139815
0.00141755
0.00143678
0.00145579
0.00147453
0.00149296
0.00151097
0.0015285
0.00154557
0.00156238
0.00157893
0.0015952
0.00161118
0.00162686
0.00164223
0.00165729
0.001672
0.00168638
0.0017004
0.00171406
0.00172733
0.00174023
0.00175273
0.00176483
0.00177651
0.00178778
0.00179862
0.00180902
0.00181898
0.00182849
0.00183755
0.00184615
0.00185429
0.00186195
0.00186915
0.00187587
0.00188213
0.00188791
0.00189322
0.00189807
0.00190248
0.00190648
0.00190967
0.00191235
0.00191485
0.00191691
0.00191842
0.00191946
0.00192003
0.00192013
0.00191979
0.001919
0.00191777
0.00191611
0.00191402
0.00191152
0.00190861
0.00190531
0.00190162
0.00189755
0.00189312
0.00188833
0.0018832
0.00187774
0.00187196
0.00186588
0.00185951
0.00185287
0.00184595
0.00183879
0.00183137
0.00182371
0.00181575
0.0018073
0.00179767
0.00178639
0.00177423
0.00176164
0.0017488
0.00173578
0.00172263
0.00170937
0.001696
0.00168251
0.00166886
0.00165493
0.00164045
0.00162465
0.00160484
0.00156289
2.60799e-06
5.00877e-05
0.000108096
0.0001531
0.000186112
0.000210525
0.000229283
0.000244673
0.000258332
0.000271315
0.000284214
0.000297288
0.000310583
0.000324032
0.000337513
0.000350891
0.000364039
0.000376844
0.000389222
0.000401119
0.00041252
0.000423451
0.000433981
0.000444217
0.000454286
0.000464321
0.000474442
0.000484756
0.000495367
0.000506398
0.000517955
0.000530177
0.000543392
0.000558126
0.000574812
0.000591294
0.000606382
0.000622999
0.000642666
0.000662051
0.000682278
0.000702588
0.000725429
0.000747902
0.000770386
0.000793073
0.000815936
0.00083901
0.000862274
0.000885731
0.000909373
0.000933201
0.000957211
0.000981404
0.00100578
0.00103034
0.00105508
0.00108001
0.00110513
0.00113044
0.00115594
0.00118163
0.0012075
0.00123355
0.00125979
0.00128619
0.00131276
0.0013395
0.00136638
0.00139341
0.00142058
0.00144787
0.00147527
0.00150278
0.00153036
0.00155803
0.00158575
0.00161351
0.0016413
0.00166911
0.0016969
0.00172468
0.00175241
0.00178009
0.00180769
0.00183519
0.00186257
0.00188982
0.00191691
0.00194382
0.00197052
0.00199698
0.00202316
0.00204904
0.00207457
0.00209969
0.00212436
0.00214855
0.00217233
0.00219575
0.0022188
0.00224146
0.00226372
0.00228557
0.00230698
0.00232795
0.00234845
0.00236847
0.00238801
0.00240703
0.00242553
0.0024435
0.00246093
0.00247779
0.00249409
0.0025098
0.00252493
0.00253945
0.00255336
0.00256666
0.00257932
0.00259135
0.00260275
0.00261349
0.00262359
0.00263303
0.00264183
0.00264997
0.00265746
0.00266431
0.00267064
0.00267622
0.00268081
0.00268472
0.00268838
0.00269132
0.00269357
0.00269515
0.00269609
0.00269639
0.00269606
0.00269512
0.00269356
0.0026914
0.00268866
0.00268533
0.00268144
0.00267699
0.002672
0.00266648
0.00266045
0.00265393
0.00264692
0.00263944
0.00263152
0.00262317
0.0026144
0.00260524
0.0025957
0.0025858
0.00257555
0.00256494
0.00255394
0.00254239
0.00252985
0.00251601
0.00250127
0.00248597
0.0024703
0.00245436
0.00243822
0.00242189
0.00240541
0.00238877
0.00237192
0.00235476
0.00233698
0.0023176
0.0022934
0.00224915
3.64284e-06
6.03877e-05
0.000128873
0.000182686
0.000222818
0.00025285
0.000276054
0.000294955
0.000311383
0.000326569
0.000341265
0.000355866
0.00037053
0.000385275
0.000400039
0.000414733
0.000429267
0.000443563
0.000457572
0.000471277
0.000484704
0.000497924
0.000511053
0.000524252
0.000537707
0.000551614
0.000566157
0.00058148
0.000597685
0.000614822
0.000632891
0.000651874
0.000671795
0.000692774
0.000715027
0.000737789
0.000760501
0.000783978
0.000808669
0.000834018
0.000860042
0.00088661
0.000913916
0.000941444
0.000969152
0.000997078
0.00102521
0.00105357
0.00108214
0.00111092
0.00113991
0.00116912
0.00119854
0.00122818
0.00125802
0.00128808
0.00131834
0.00134883
0.00137953
0.00141045
0.00144158
0.00147293
0.00150448
0.00153623
0.00156818
0.00160032
0.00163263
0.00166511
0.00169776
0.00173055
0.00176347
0.00179651
0.00182966
0.0018629
0.00189622
0.00192959
0.001963
0.00199643
0.00202986
0.00206328
0.00209666
0.00212998
0.00216322
0.00219636
0.00222938
0.00226225
0.00229496
0.00232747
0.00235976
0.00239182
0.0024236
0.00245508
0.00248622
0.00251701
0.00254741
0.00257739
0.00260694
0.00263606
0.00266474
0.002693
0.0027208
0.00274816
0.00277503
0.00280141
0.00282727
0.0028526
0.00287739
0.0029016
0.00292524
0.00294827
0.0029707
0.00299249
0.00301364
0.00303413
0.00305394
0.00307308
0.00309151
0.00310924
0.00312625
0.00314254
0.00315808
0.00317288
0.00318692
0.0032002
0.00321271
0.00322446
0.00323543
0.00324563
0.00325507
0.00326381
0.00327191
0.00327895
0.00328499
0.00329034
0.00329521
0.00329925
0.00330248
0.00330493
0.00330661
0.00330753
0.0033077
0.00330714
0.00330584
0.00330383
0.00330111
0.00329769
0.0032936
0.00328883
0.00328341
0.00327735
0.00327067
0.00326339
0.00325552
0.00324708
0.00323809
0.00322857
0.00321855
0.00320803
0.00319705
0.00318562
0.00317375
0.00316145
0.0031487
0.00313537
0.00312124
0.00310611
0.00309016
0.00307361
0.00305661
0.00303928
0.00302167
0.00300385
0.00298582
0.00296761
0.00294918
0.00293043
0.00291102
0.00288996
0.00286415
0.00282238
4.63833e-06
6.90764e-05
0.000146421
0.000207812
0.00025433
0.000289489
0.000316781
0.000338923
0.000357914
0.00037514
0.0003915
0.000407523
0.00042348
0.000439477
0.000455526
0.000471594
0.000487634
0.00050361
0.000519507
0.00053534
0.000551161
0.000567059
0.000583163
0.000599632
0.000616645
0.000634382
0.000653004
0.000672635
0.000693349
0.000715162
0.000738039
0.000761901
0.000786662
0.000812277
0.000838784
0.000865986
0.000893676
0.000921988
0.00095103
0.000980699
0.00101091
0.00104159
0.00107275
0.00110423
0.00113598
0.00116798
0.00120022
0.00123269
0.00126538
0.00129831
0.00133146
0.00136483
0.00139844
0.00143227
0.00146633
0.00150063
0.00153516
0.0015699
0.00160487
0.00164004
0.00167543
0.00171101
0.0017468
0.00178278
0.00181894
0.00185528
0.00189178
0.00192844
0.00196525
0.00200218
0.00203923
0.00207638
0.00211362
0.00215093
0.00218829
0.00222569
0.00226311
0.00230052
0.00233792
0.00237527
0.00241257
0.00244978
0.00248688
0.00252386
0.00256069
0.00259735
0.00263381
0.00267005
0.00270604
0.00274176
0.00277719
0.00281229
0.00284704
0.00288141
0.00291538
0.00294893
0.00298204
0.00301471
0.00304691
0.00307865
0.0031099
0.00314064
0.00317087
0.00320055
0.00322967
0.00325821
0.00328615
0.00331348
0.00334017
0.0033662
0.00339157
0.00341625
0.00344022
0.00346348
0.00348601
0.00350779
0.00352881
0.00354906
0.00356853
0.0035872
0.00360506
0.00362211
0.00363833
0.00365372
0.00366827
0.00368198
0.00369484
0.00370686
0.00371805
0.00372857
0.00373814
0.0037467
0.00375417
0.003761
0.00376713
0.00377236
0.00377672
0.00378022
0.00378288
0.00378469
0.00378568
0.00378585
0.00378521
0.00378377
0.00378154
0.00377854
0.00377478
0.00377027
0.00376503
0.00375907
0.00375241
0.00374507
0.00373706
0.00372841
0.00371914
0.00370926
0.0036988
0.00368778
0.00367622
0.00366415
0.00365157
0.0036385
0.00362493
0.00361079
0.00359595
0.00358031
0.00356395
0.00354698
0.00352954
0.00351171
0.00349357
0.00347517
0.00345655
0.00343775
0.00341875
0.00339949
0.00337966
0.00335835
0.00333285
0.00329522
5.55485e-06
7.62773e-05
0.00016102
0.000228986
0.000281249
0.00032114
0.000352279
0.000377515
0.000398979
0.000418191
0.000436182
0.000453603
0.000470837
0.000488082
0.000505424
0.000522891
0.000540481
0.000558196
0.000576048
0.000594071
0.000612327
0.000630907
0.000649926
0.000669517
0.00068982
0.000710974
0.000733097
0.000756272
0.000780543
0.000805909
0.000832328
0.000859722
0.000887998
0.000917077
0.000946915
0.000977439
0.00100857
0.00104029
0.0010726
0.00110545
0.00113879
0.00117255
0.00120672
0.00124122
0.00127602
0.00131109
0.00134641
0.00138197
0.00141776
0.00145379
0.00149003
0.0015265
0.00156319
0.0016001
0.00163723
0.00167458
0.00171215
0.00174992
0.0017879
0.00182608
0.00186446
0.00190302
0.00194177
0.0019807
0.00201979
0.00205905
0.00209845
0.00213799
0.00217766
0.00221745
0.00225734
0.00229731
0.00233736
0.00237746
0.0024176
0.00245777
0.00249793
0.00253809
0.0025782
0.00261827
0.00265826
0.00269816
0.00273794
0.00277758
0.00281706
0.00285636
0.00289545
0.0029343
0.00297291
0.00301123
0.00304925
0.00308694
0.00312428
0.00316124
0.0031978
0.00323394
0.00326965
0.0033049
0.00333968
0.00337398
0.00340777
0.00344104
0.00347377
0.00350593
0.00353751
0.00356848
0.00359883
0.00362853
0.00365758
0.00368594
0.0037136
0.00374055
0.00376676
0.00379223
0.00381692
0.00384084
0.00386396
0.00388628
0.00390777
0.00392843
0.00394824
0.0039672
0.00398529
0.00400251
0.00401884
0.00403428
0.00404883
0.00406249
0.00407533
0.00408743
0.0040984
0.00410844
0.00411736
0.00412565
0.00413307
0.00413956
0.00414514
0.00414981
0.00415358
0.00415647
0.00415847
0.0041596
0.00415987
0.00415928
0.00415785
0.0041556
0.00415252
0.00414865
0.00414398
0.00413855
0.00413236
0.00412543
0.00411778
0.00410943
0.0041004
0.00409071
0.00408038
0.00406944
0.0040579
0.00404579
0.00403313
0.00401993
0.00400619
0.00399188
0.00397694
0.00396131
0.00394502
0.00392815
0.00391079
0.00389303
0.00387492
0.00385653
0.00383792
0.00381914
0.0038002
0.00378108
0.00376153
0.00374078
0.00371657
0.00368307
6.36479e-06
8.20945e-05
0.000172905
0.000246527
0.000303927
0.000348185
0.000382962
0.000411187
0.000435083
0.000456278
0.000475913
0.000494749
0.000513271
0.000531765
0.00055039
0.000569232
0.000588335
0.000607728
0.000627441
0.000647517
0.000668018
0.000689026
0.000710641
0.000732962
0.00075608
0.000780087
0.000805062
0.000831054
0.000858086
0.000886145
0.000915194
0.000945168
0.000975992
0.00100759
0.0010399
0.00107286
0.00110642
0.00114054
0.00117519
0.00121032
0.00124589
0.00128185
0.00131819
0.00135487
0.00139186
0.00142912
0.00146664
0.0015044
0.00154238
0.00158057
0.00161897
0.00165758
0.00169639
0.0017354
0.00177461
0.00181401
0.00185361
0.00189339
0.00193336
0.0019735
0.00201383
0.00205432
0.00209497
0.00213579
0.00217675
0.00221786
0.0022591
0.00230047
0.00234195
0.00238354
0.00242521
0.00246697
0.00250879
0.00255066
0.00259257
0.0026345
0.00267643
0.00271835
0.00276024
0.00280207
0.00284384
0.00288552
0.00292708
0.00296852
0.0030098
0.00305091
0.00309182
0.00313251
0.00317296
0.00321313
0.00325302
0.00329259
0.00333183
0.0033707
0.00340919
0.00344727
0.00348493
0.00352214
0.00355889
0.00359515
0.00363091
0.00366614
0.00370083
0.00373494
0.00376847
0.00380138
0.00383367
0.0038653
0.00389626
0.00392653
0.00395609
0.00398492
0.004013
0.00404032
0.00406685
0.00409259
0.00411751
0.00414161
0.00416487
0.00418727
0.0042088
0.00422946
0.00424922
0.00426809
0.00428604
0.00430308
0.00431919
0.00433438
0.00434882
0.00436228
0.00437472
0.00438618
0.00439659
0.00440628
0.00441503
0.00442283
0.00442968
0.0044356
0.00444058
0.00444464
0.00444779
0.00445003
0.00445137
0.00445182
0.0044514
0.0044501
0.00444795
0.00444497
0.00444115
0.00443652
0.0044311
0.0044249
0.00441794
0.00441023
0.0044018
0.00439267
0.00438286
0.00437239
0.00436128
0.00434956
0.00433724
0.00432435
0.00431088
0.00429684
0.0042822
0.00426693
0.00425104
0.0042346
0.00421767
0.0042003
0.00418259
0.00416458
0.00414636
0.00412797
0.00410948
0.00409089
0.00407203
0.00405226
0.00402978
0.00400053
7.05145e-06
8.6635e-05
0.000182289
0.0002607
0.000322644
0.000370901
0.000409106
0.000440214
0.000466507
0.000489691
0.000510994
0.000531272
0.000551096
0.000570834
0.00059071
0.000610864
0.0006314
0.000652363
0.000673771
0.000695663
0.000718088
0.000741095
0.000764725
0.000789067
0.000814244
0.000840331
0.000867373
0.000895398
0.00092441
0.000954393
0.00098531
0.00101711
0.00104973
0.0010831
0.00111717
0.00115188
0.00118717
0.00122301
0.00125934
0.00129613
0.00133334
0.0013709
0.00140875
0.00144682
0.00148517
0.00152382
0.00156273
0.00160185
0.00164117
0.00168068
0.00172036
0.00176022
0.00180026
0.00184046
0.00188084
0.00192138
0.00196208
0.00200295
0.00204398
0.00208516
0.0021265
0.00216799
0.00220963
0.00225141
0.00229333
0.00233538
0.00237757
0.00241987
0.00246229
0.00250482
0.00254744
0.00259015
0.00263293
0.00267578
0.00271867
0.00276161
0.00280456
0.00284753
0.00289048
0.0029334
0.00297629
0.0030191
0.00306184
0.00310447
0.00314698
0.00318934
0.00323153
0.00327353
0.00331532
0.00335686
0.00339815
0.00343915
0.00347984
0.0035202
0.0035602
0.00359982
0.00363903
0.00367782
0.00371616
0.00375403
0.00379141
0.00382827
0.00386459
0.00390035
0.00393553
0.0039701
0.00400405
0.00403734
0.00406996
0.0041019
0.00413312
0.00416361
0.00419334
0.00422231
0.00425049
0.00427787
0.00430442
0.00433014
0.00435501
0.00437902
0.00440214
0.00442437
0.00444571
0.00446612
0.00448561
0.00450417
0.00452178
0.00453848
0.00455437
0.0045692
0.00458309
0.00459598
0.0046079
0.00461899
0.0046291
0.00463823
0.00464641
0.00465362
0.00465989
0.00466521
0.0046696
0.00467305
0.00467559
0.00467721
0.00467792
0.00467775
0.00467669
0.00467477
0.00467199
0.00466837
0.00466393
0.00465867
0.00465263
0.00464581
0.00463823
0.00462993
0.0046209
0.00461118
0.00460079
0.00458975
0.00457808
0.0045658
0.00455292
0.00453945
0.00452539
0.00451073
0.00449548
0.00447969
0.0044634
0.00444667
0.00442958
0.0044122
0.00439459
0.00437685
0.00435904
0.0043412
0.00432324
0.00430466
0.00428404
0.00425905
7.60639e-06
9.00107e-05
0.000189385
0.000271768
0.000337664
0.000389541
0.000430943
0.000464809
0.000493446
0.000518609
0.000541592
0.000563324
0.000584465
0.000605454
0.000626508
0.000647768
0.000669287
0.000691195
0.000713645
0.000736706
0.000760429
0.000784866
0.000810084
0.000836134
0.000863055
0.000890879
0.000919608
0.000949248
0.00097979
0.00101121
0.00104348
0.00107656
0.00111038
0.0011449
0.00118006
0.0012158
0.00125208
0.00128883
0.00132603
0.00136363
0.00140159
0.00143988
0.00147848
0.00151741
0.00155659
0.00159594
0.00163548
0.00167518
0.00171503
0.00175502
0.00179513
0.00183539
0.00187578
0.00191631
0.00195698
0.00199778
0.00203872
0.00207981
0.00212103
0.0021624
0.0022039
0.00224556
0.00228736
0.0023293
0.00237138
0.00241361
0.00245599
0.00249849
0.00254114
0.00258391
0.00262681
0.00266982
0.00271294
0.00275616
0.00279947
0.00284285
0.0028863
0.0029298
0.00297334
0.00301689
0.00306045
0.00310399
0.00314749
0.00319094
0.00323431
0.00327758
0.00332073
0.00336373
0.00340656
0.0034492
0.00349161
0.00353378
0.00357568
0.00361729
0.00365857
0.0036995
0.00374005
0.00378021
0.00381995
0.00385923
0.00389804
0.00393636
0.00397415
0.00401139
0.00404807
0.00408415
0.00411961
0.00415443
0.00418858
0.00422205
0.00425482
0.00428685
0.00431814
0.00434865
0.00437838
0.00440731
0.00443541
0.00446268
0.00448908
0.00451462
0.00453928
0.00456304
0.00458588
0.00460781
0.0046288
0.00464884
0.00466793
0.00468613
0.00470338
0.00471966
0.00473499
0.00474934
0.00476275
0.00477528
0.00478678
0.0047973
0.00480684
0.00481542
0.00482303
0.00482969
0.00483539
0.00484015
0.00484398
0.00484687
0.00484884
0.00484991
0.00485007
0.00484935
0.00484775
0.00484529
0.00484199
0.00483785
0.0048329
0.00482715
0.00482063
0.00481334
0.0048053
0.00479655
0.00478709
0.00477695
0.00476616
0.00475472
0.00474266
0.00472999
0.00471673
0.00470287
0.00468843
0.00467345
0.00465797
0.00464205
0.00462576
0.00460916
0.00459234
0.00457539
0.00455841
0.00454146
0.0045245
0.00450715
0.00448833
0.00446678
8.02825e-06
9.23338e-05
0.000194392
0.000280087
0.000349245
0.000404355
0.000448702
0.000485172
0.000516066
0.000543176
0.00056783
0.00059092
0.000613062
0.0006347
0.000656341
0.000678269
0.000700693
0.000723743
0.000747437
0.000771793
0.000796846
0.000822636
0.0008492
0.000876557
0.0009047
0.000933643
0.000963409
0.000994001
0.00102541
0.0010576
0.00109055
0.00112423
0.00115857
0.00119353
0.00122907
0.00126513
0.00130165
0.00133861
0.00137594
0.00141362
0.0014516
0.00148986
0.00152836
0.0015671
0.00160603
0.0016452
0.00168461
0.00172412
0.00176367
0.00180328
0.00184296
0.00188274
0.00192261
0.0019626
0.0020027
0.00204291
0.00208325
0.00212373
0.00216434
0.0022051
0.00224601
0.00228708
0.00232832
0.00236973
0.00241132
0.00245308
0.00249503
0.00253716
0.00257948
0.00262198
0.00266466
0.00270751
0.00275054
0.00279372
0.00283706
0.00288054
0.00292416
0.00296789
0.00301172
0.00305564
0.00309963
0.00314367
0.00318773
0.0032318
0.00327586
0.00331987
0.00336382
0.00340768
0.00345143
0.00349503
0.00353846
0.00358169
0.0036247
0.00366745
0.00370991
0.00375207
0.00379388
0.00383533
0.00387638
0.003917
0.00395717
0.00399687
0.00403606
0.00407473
0.00411283
0.00415036
0.00418728
0.00422357
0.00425921
0.00429417
0.00432843
0.00436197
0.00439476
0.00442679
0.00445804
0.00448848
0.00451809
0.00454687
0.0045748
0.00460185
0.00462802
0.00465329
0.00467764
0.00470107
0.00472356
0.0047451
0.00476568
0.00478533
0.004804
0.00482174
0.00483854
0.00485438
0.00486928
0.00488333
0.00489626
0.0049082
0.00491917
0.00492917
0.00493819
0.00494626
0.00495336
0.00495951
0.00496472
0.00496898
0.00497231
0.00497473
0.00497623
0.00497683
0.00497654
0.00497538
0.00497335
0.00497048
0.00496677
0.00496225
0.00495692
0.00495082
0.00494395
0.00493633
0.00492799
0.00491894
0.0049092
0.0048988
0.00488775
0.00487607
0.00486378
0.00485088
0.00483741
0.00482339
0.00480886
0.00479388
0.00477851
0.00476283
0.00474692
0.00473088
0.00471483
0.00469885
0.00468294
0.00466682
0.00464965
0.00463095
8.32176e-06
9.37373e-05
0.00019756
0.000285833
0.000357682
0.000415612
0.000462618
0.00050152
0.000534464
0.000563115
0.000588797
0.000612719
0.000635737
0.0006585
0.000681302
0.00070436
0.000727838
0.000751799
0.000776315
0.000801455
0.000827261
0.000853776
0.000881018
0.000908999
0.000937717
0.000967174
0.000997368
0.00102829
0.00105993
0.00109224
0.00112522
0.0011588
0.00119296
0.00122765
0.00126282
0.00129844
0.00133445
0.0013708