/*--------------------------------*- C++ -*----------------------------------*\
| =========                 |                                                 |
| \\      /  F ield         | OpenFOAM: The Open Source CFD Toolbox           |
|  \\    /   O peration     | Version:  5.x                                   |
|   \\  /    A nd           | Web:      www.OpenFOAM.org                      |
|    \\/     M anipulation  |                                                 |
\*---------------------------------------------------------------------------*/
FoamFile
{
    version     2.0;
    format      ascii;
    class       volScalarField;
    location    "1000";
    object      p;
}
// * * * * * * * * * * * * * * * * * * * * * * * * * * * * * * * * * * * * * //

dimensions      [0 2 -2 0 0 0 0];

internalField   nonuniform List<scalar> 
12225
(
-1.33071
-3.59571
-4.7137
-5.02829
-5.20683
-5.37603
-5.50798
-5.60339
-5.68005
-5.7478
-5.80837
-5.86414
-5.91563
-5.96466
-6.01219
-6.05503
-6.10949
-6.09874
-4.55336
-5.36002
-5.51768
-5.41491
-5.39941
-5.46788
-5.54631
-5.61266
-5.67282
-5.73075
-5.7861
-5.83821
-5.88787
-5.93566
-5.9828
-6.02677
-6.07807
-6.12274
-4.96827
-4.94515
-5.06894
-5.15223
-5.25317
-5.37765
-5.48782
-5.57462
-5.64779
-5.71414
-5.77537
-5.8317
-5.88468
-5.93496
-5.98419
-6.03079
-6.08363
-6.13087
-4.84543
-4.77855
-5.02527
-5.19457
-5.30012
-5.4067
-5.50498
-5.58573
-5.65497
-5.71848
-5.77773
-5.8328
-5.88486
-5.9345
-5.9831
-6.03013
-6.08024
-6.12778
-4.8388
-4.86155
-5.0913
-5.23915
-5.32327
-5.41399
-5.50548
-5.58404
-5.65219
-5.71491
-5.77372
-5.82871
-5.8808
-5.93061
-5.97927
-6.02673
-6.07531
-6.12317
-4.90377
-4.95309
-5.1226
-5.24912
-5.33164
-5.41866
-5.50696
-5.58424
-5.65173
-5.71383
-5.77215
-5.82688
-5.87876
-5.92842
-5.97673
-6.02391
-6.0711
-6.11778
-4.9719
-5.01524
-5.14237
-5.25913
-5.34432
-5.42762
-5.511
-5.58581
-5.65211
-5.71329
-5.77086
-5.82508
-5.87653
-5.92581
-5.97357
-6.02008
-6.06593
-6.11086
-5.02422
-5.06072
-5.16567
-5.27343
-5.35711
-5.43607
-5.51488
-5.58727
-5.65238
-5.71265
-5.76946
-5.82312
-5.87409
-5.9229
-5.97005
-6.01581
-6.06048
-6.10387
-5.06794
-5.1005
-5.18971
-5.2877
-5.36842
-5.44376
-5.51873
-5.58888
-5.65277
-5.71212
-5.76814
-5.8212
-5.87164
-5.91992
-5.96644
-6.01141
-6.05502
-6.09705
-5.11343
-5.14253
-5.21712
-5.30431
-5.38108
-5.45274
-5.52371
-5.59117
-5.65349
-5.71166
-5.76667
-5.81892
-5.86865
-5.91622
-5.96193
-6.00594
-6.04836
-6.08895
-5.16007
-5.18548
-5.24728
-5.3237
-5.39551
-5.46318
-5.52996
-5.59432
-5.65467
-5.71137
-5.76514
-5.81632
-5.86512
-5.91176
-5.95647
-5.99935
-6.04046
-6.07958
-5.20688
-5.22859
-5.27965
-5.34579
-5.41171
-5.47501
-5.5375
-5.59843
-5.65642
-5.71133
-5.76359
-5.81346
-5.86108
-5.90658
-5.95009
-5.99168
-6.03139
-6.06903
-5.25277
-5.27105
-5.31326
-5.36996
-5.42944
-5.48804
-5.5462
-5.60348
-5.65875
-5.71156
-5.76204
-5.81035
-5.85655
-5.90069
-5.94283
-5.98302
-6.02126
-6.05742
-5.29641
-5.3117
-5.34674
-5.39516
-5.44816
-5.50186
-5.55573
-5.60927
-5.66155
-5.71199
-5.76046
-5.80698
-5.85154
-5.89414
-5.93478
-5.97347
-6.01022
-6.04493
-5.33616
-5.34898
-5.37833
-5.41982
-5.46681
-5.5157
-5.56541
-5.61529
-5.66449
-5.71239
-5.75867
-5.80325
-5.84603
-5.88696
-5.92602
-5.96318
-5.99846
-6.03179
-5.36984
-5.38075
-5.40581
-5.44185
-5.48372
-5.52827
-5.5742
-5.6207
-5.66696
-5.71232
-5.7564
-5.79898
-5.83994
-5.87919
-5.91666
-5.95233
-5.98619
-6.01823
-5.39447
-5.40405
-5.42616
-5.45837
-5.49643
-5.53759
-5.58047
-5.62418
-5.66793
-5.71106
-5.75313
-5.79388
-5.83314
-5.8708
-5.90679
-5.94108
-5.97367
-6.00455
-5.40495
-5.4139
-5.43466
-5.46508
-5.50131
-5.5407
-5.58189
-5.62397
-5.66616
-5.70781
-5.74849
-5.78791
-5.8259
-5.86236
-5.89721
-5.93044
-5.96203
-5.992
-5.4003
-5.40933
-5.43028
-5.46101
-5.49754
-5.53703
-5.57809
-5.6199
-5.66171
-5.70288
-5.74298
-5.78177
-5.81909
-5.85487
-5.88905
-5.9216
-5.95256
-5.98195
-5.38444
-5.394
-5.4163
-5.44907
-5.48767
-5.52872
-5.57086
-5.61345
-5.65579
-5.69723
-5.73739
-5.77608
-5.8132
-5.84871
-5.88256
-5.91477
-5.94537
-5.97442
-5.36043
-5.37073
-5.39535
-5.43186
-5.474
-5.51761
-5.56166
-5.60585
-5.64938
-5.69157
-5.73215
-5.77107
-5.80828
-5.84375
-5.87749
-5.90954
-5.93996
-5.96882
-5.33054
-5.34124
-5.36913
-5.41155
-5.45858
-5.50514
-5.55155
-5.59791
-5.64309
-5.68633
-5.72757
-5.7669
-5.80435
-5.83992
-5.87366
-5.90565
-5.93597
-5.96471
-5.2968
-5.30666
-5.33853
-5.38946
-5.44272
-5.49264
-5.54177
-5.59054
-5.6374
-5.68172
-5.72371
-5.76357
-5.80135
-5.83708
-5.87088
-5.90288
-5.93316
-5.96185
-5.26071
-5.26822
-5.30612
-5.36693
-5.42573
-5.47952
-5.53276
-5.58455
-5.63297
-5.67814
-5.72076
-5.76109
-5.79912
-5.83495
-5.86878
-5.90075
-5.93099
-5.9596
-5.22209
-5.22198
-5.27781
-5.35124
-5.41001
-5.46514
-5.52308
-5.57868
-5.629
-5.67522
-5.71864
-5.75949
-5.79779
-5.83373
-5.86757
-5.89952
-5.92971
-5.95833
-5.18709
-5.14574
-5.24193
-5.34478
-5.40444
-5.45751
-5.51676
-5.57373
-5.62468
-5.67145
-5.71544
-5.75673
-5.7953
-5.83141
-5.86534
-5.89733
-5.92756
-5.9562
-5.20414
-5.04788
-5.16006
-5.30144
-5.38577
-5.45335
-5.51914
-5.5777
-5.62864
-5.67523
-5.71899
-5.75992
-5.79805
-5.83373
-5.86725
-5.89886
-5.9288
-5.9573
-5.32308
-5.14164
-5.14937
-5.21637
-5.29772
-5.38957
-5.47483
-5.54508
-5.60419
-5.65713
-5.7056
-5.74987
-5.79038
-5.82779
-5.86258
-5.89513
-5.92589
-5.95548
-5.05736
-5.59106
-5.6741
-5.56083
-5.5078
-5.53064
-5.57378
-5.61422
-5.65334
-5.69336
-5.73306
-5.77097
-5.80675
-5.84049
-5.87231
-5.90223
-5.93051
-5.95918
-2.17427
-3.80537
-4.77008
-5.07225
-5.22152
-5.36178
-5.47383
-5.55354
-5.61621
-5.67151
-5.72143
-5.76633
-5.80704
-5.8444
-5.87887
-5.91048
-5.93897
-5.96251
-6.80385
-6.80386
-6.80419
-6.80488
-6.80578
-6.8068
-6.80797
-6.8093
-6.81082
-6.8126
-6.81468
-6.81712
-6.81995
-6.82322
-6.82699
-6.83128
-6.83614
-6.84161
-6.84773
-6.85454
-6.86208
-6.87039
-6.87952
-6.88953
-6.9005
-6.9125
-6.92562
-6.93998
-6.95566
-6.97271
-6.99096
-7.01024
-7.03048
-7.05102
-7.07044
-7.08993
-7.11265
-7.13877
-7.16635
-7.19433
-7.22359
-7.25378
-7.28063
-7.30226
-7.32568
-7.35321
-7.38146
-7.41064
-7.44037
-7.4705
-7.50087
-7.53133
-7.56179
-7.59213
-7.62224
-7.65202
-7.68138
-7.71019
-7.73836
-7.76577
-7.79231
-7.81784
-7.84225
-7.86539
-7.88712
-7.90731
-7.92579
-7.94241
-7.95699
-7.96938
-7.97938
-7.98684
-7.99155
-7.99333
-7.99198
-7.98732
-7.97915
-7.96727
-7.95148
-7.93159
-7.9074
-7.87872
-7.84536
-7.80713
-7.76385
-7.71534
-7.66142
-7.60194
-7.53673
-7.46564
-7.38853
-7.30528
-7.21575
-7.11986
-7.0175
-6.9087
-6.79355
-6.67201
-6.54357
-6.40796
-6.26534
-6.11584
-5.95948
-5.79631
-5.62634
-5.44964
-5.26625
-5.07625
-4.87973
-4.6768
-4.46756
-4.25216
-4.03075
-3.80348
-3.57054
-3.33211
-3.0884
-2.83963
-2.58603
-2.32783
-2.06529
-1.79866
-1.52824
-1.25428
-0.977076
-0.696927
-0.414128
-0.128982
0.158206
0.447132
0.737497
1.02899
1.32126
1.61401
1.90694
2.19978
2.49222
2.78394
3.07467
3.36412
3.65201
3.93808
4.22208
4.50375
4.78287
5.05921
5.33256
5.60271
5.86947
6.13268
6.39216
6.64776
6.89934
7.14678
7.38995
7.62876
7.86312
8.09293
8.31812
8.53864
8.75444
8.96547
9.1717
9.37313
9.56988
9.76183
9.94868
10.1304
10.307
10.4784
10.6448
10.8062
10.9625
11.1138
11.2602
11.4022
11.5407
11.6768
11.821
11.9698
-6.80292
-6.80314
-6.80358
-6.80422
-6.80486
-6.80543
-6.80598
-6.80667
-6.8076
-6.80884
-6.81042
-6.81239
-6.81477
-6.81759
-6.82087
-6.82466
-6.82899
-6.83389
-6.83942
-6.84561
-6.85251
-6.86017
-6.86862
-6.87793
-6.88811
-6.89921
-6.91123
-6.92417
-6.93798
-6.95258
-6.96786
-6.98393
-7.00095
-7.0186
-7.03822
-7.06104
-7.08433
-7.10612
-7.12771
-7.15096
-7.17502
-7.19948
-7.22714
-7.26223
-7.29827
-7.32939
-7.35988
-7.3902
-7.42053
-7.45091
-7.48132
-7.51173
-7.54206
-7.57223
-7.60217
-7.63178
-7.66097
-7.68963
-7.71767
-7.74498
-7.77143
-7.79692
-7.82132
-7.84448
-7.86628
-7.88657
-7.9052
-7.922
-7.93681
-7.94947
-7.9598
-7.96762
-7.97274
-7.97498
-7.97415
-7.97005
-7.96249
-7.95127
-7.93619
-7.91706
-7.89369
-7.86588
-7.83343
-7.79617
-7.75391
-7.70648
-7.65369
-7.5954
-7.53144
-7.46166
-7.38592
-7.30411
-7.21608
-7.12173
-7.02094
-6.91359
-6.79951
-6.67851
-6.55073
-6.41634
-6.27523
-6.12733
-5.97261
-5.81109
-5.64279
-5.46776
-5.28605
-5.09773
-4.90288
-4.7016
-4.49402
-4.28025
-4.06044
-3.83476
-3.60338
-3.36648
-3.12427
-2.87696
-2.62477
-2.36795
-2.10673
-1.84139
-1.57219
-1.2994
-1.02331
-0.744217
-0.46241
-0.178193
0.108129
0.396255
0.685889
0.97672
1.26841
1.56062
1.8531
2.14556
2.43768
2.72916
3.01972
3.30907
3.59693
3.88304
4.16714
4.44898
4.72833
5.00496
5.27865
5.54921
5.81644
6.08016
6.34021
6.59642
6.84867
7.09681
7.34073
7.58032
7.81549
8.04615
8.27222
8.49366
8.7104
8.92243
9.12973
9.33226
9.52969
9.72184
9.90886
10.0908
10.2676
10.4394
10.6061
10.7679
10.9246
11.0764
11.2236
11.3665
11.5065
11.6444
11.7916
11.9361
-6.79959
-6.80038
-6.80151
-6.80253
-6.80319
-6.80359
-6.80393
-6.80437
-6.80504
-6.80603
-6.80739
-6.80915
-6.81134
-6.814
-6.81713
-6.82079
-6.825
-6.82979
-6.83522
-6.84132
-6.84814
-6.85571
-6.86408
-6.87328
-6.88335
-6.8943
-6.90615
-6.91891
-6.93258
-6.94716
-6.96266
-6.97917
-6.99674
-7.01536
-7.03555
-7.05776
-7.08118
-7.10487
-7.12881
-7.15334
-7.17819
-7.20298
-7.22865
-7.25669
-7.28608
-7.3153
-7.34482
-7.37452
-7.40434
-7.43422
-7.46413
-7.49402
-7.52382
-7.55347
-7.5829
-7.61201
-7.64073
-7.66895
-7.69659
-7.72352
-7.74965
-7.77485
-7.79899
-7.82196
-7.8436
-7.86378
-7.88234
-7.89914
-7.914
-7.92676
-7.93725
-7.94528
-7.95068
-7.95325
-7.95282
-7.94917
-7.94214
-7.9315
-7.91708
-7.89866
-7.87607
-7.84911
-7.81758
-7.78129
-7.74008
-7.69375
-7.64214
-7.58507
-7.5224
-7.45397
-7.37964
-7.29927
-7.21275
-7.11995
-7.02078
-6.91512
-6.80284
-6.68376
-6.55791
-6.42537
-6.28611
-6.14011
-5.98732
-5.82776
-5.66145
-5.48843
-5.30873
-5.12243
-4.92961
-4.73036
-4.52479
-4.31304
-4.09525
-3.87156
-3.64214
-3.40719
-3.1669
-2.92147
-2.67114
-2.41613
-2.15668
-1.89306
-1.62553
-1.35436
-1.07984
-0.802244
-0.521878
-0.239039
0.0459686
0.332848
0.621306
0.911024
1.20167
1.49293
1.78454
2.07618
2.36756
2.65838
2.94835
3.23719
3.52461
3.81036
4.09417
4.37579
4.65499
4.93153
5.20521
5.47581
5.74314
6.00702
6.26727
6.52375
6.7763
7.02479
7.2691
7.50912
7.74475
7.9759
8.20249
8.42444
8.6417
8.8542
9.06188
9.26475
9.46276
9.65586
9.844
10.0271
10.2051
10.378
10.5459
10.7087
10.8667
11.0198
11.1684
11.3129
11.4551
11.5948
11.7447
11.8784
-6.79406
-6.79553
-6.79774
-6.79959
-6.80077
-6.80153
-6.80213
-6.80274
-6.80351
-6.80453
-6.80589
-6.80763
-6.8098
-6.81243
-6.81556
-6.8192
-6.8234
-6.82818
-6.8336
-6.83968
-6.84646
-6.85399
-6.86229
-6.87141
-6.88137
-6.89221
-6.90393
-6.91655
-6.93009
-6.94454
-6.95995
-6.97635
-6.99382
-7.01242
-7.0323
-7.05357
-7.07601
-7.09929
-7.12326
-7.14789
-7.17312
-7.19886
-7.22523
-7.25238
-7.28019
-7.30847
-7.33716
-7.36615
-7.39534
-7.42467
-7.45407
-7.48348
-7.51283
-7.54205
-7.57107
-7.59981
-7.62818
-7.65609
-7.68344
-7.71013
-7.73605
-7.76108
-7.7851
-7.80797
-7.82957
-7.84974
-7.86835
-7.88522
-7.90021
-7.91314
-7.92385
-7.93214
-7.93785
-7.94078
-7.94074
-7.93755
-7.931
-7.92091
-7.90707
-7.88929
-7.86738
-7.84114
-7.81038
-7.77491
-7.73455
-7.68912
-7.63845
-7.58237
-7.52072
-7.45334
-7.3801
-7.30085
-7.21546
-7.12382
-7.02581
-6.92133
-6.81027
-6.69254
-6.56811
-6.43701
-6.2992
-6.15465
-6.00335
-5.84529
-5.68049
-5.50898
-5.33082
-5.14605
-4.95477
-4.75706
-4.55304
-4.34282
-4.12654
-3.90436
-3.67644
-3.44297
-3.20413
-2.96014
-2.71121
-2.45757
-2.19947
-1.93716
-1.67089
-1.40095
-1.12761
-0.851163
-0.571892
-0.290103
-0.00609486
0.279839
0.567405
0.856273
1.14612
1.43665
1.72759
2.01862
2.30944
2.59975
2.88928
3.17772
3.46481
3.75028
4.03387
4.31532
4.5944
4.87088
5.14454
5.41517
5.68258
5.94658
6.207
6.46368
6.71647
6.96523
7.20985
7.45019
7.68617
7.91767
8.14463
8.36699
8.58468
8.79762
9.00577
9.2091
9.40761
9.60133
9.79016
9.97397
10.1527
10.3264
10.4951
10.6587
10.8174
10.9714
11.121
11.2665
11.4096
11.5492
11.6978
11.8186
-6.78757
-6.78978
-6.79328
-6.79621
-6.79815
-6.79948
-6.80055
-6.80155
-6.80263
-6.80392
-6.80549
-6.80743
-6.80978
-6.81257
-6.81585
-6.81965
-6.82401
-6.82895
-6.83452
-6.84075
-6.84768
-6.85535
-6.8638
-6.87306
-6.88317
-6.89416
-6.90604
-6.91885
-6.9326
-6.94728
-6.96293
-6.97958
-6.99725
-7.016
-7.03586
-7.05683
-7.07879
-7.10159
-7.12515
-7.14942
-7.17435
-7.19991
-7.22614
-7.253
-7.28037
-7.30816
-7.33631
-7.36476
-7.39344
-7.42229
-7.45125
-7.48024
-7.5092
-7.53807
-7.56676
-7.59519
-7.62328
-7.65095
-7.67809
-7.70459
-7.73036
-7.75527
-7.77921
-7.80203
-7.82362
-7.84381
-7.86247
-7.87944
-7.89455
-7.90764
-7.91854
-7.92706
-7.93302
-7.93624
-7.93653
-7.93369
-7.92753
-7.91785
-7.90446
-7.88716
-7.86576
-7.84005
-7.80986
-7.77498
-7.73525
-7.69046
-7.64047
-7.58508
-7.52415
-7.45752
-7.38504
-7.30658
-7.222
-7.13118
-7.03401
-6.93039
-6.82024
-6.70346
-6.58003
-6.44992
-6.31311
-6.16956
-6.01926
-5.86222
-5.69845
-5.52797
-5.35084
-5.16712
-4.97688
-4.78021
-4.57721
-4.36802
-4.15277
-3.9316
-3.70469
-3.4722
-3.23434
-2.9913
-2.74331
-2.49059
-2.23339
-1.97195
-1.70653
-1.43741
-1.16486
-0.889167
-0.610625
-0.329532
-0.046186
0.239129
0.526102
0.8144
1.10372
1.39378
1.68429
1.97492
2.26538
2.55538
2.84462
3.13282
3.41972
3.70502
3.98849
4.26986
4.5489
4.82537
5.09906
5.36975
5.63726
5.90139
6.16197
6.41884
6.67184
6.92085
7.16572
7.40635
7.64263
7.87447
8.1018
8.32452
8.54258
8.75592
8.96446
9.16817
9.36702
9.56103
9.75014
9.93427
10.1134
10.2874
10.4565
10.6205
10.7796
10.934
11.0839
11.2297
11.3727
11.511
11.6565
11.7652
-6.78146
-6.78437
-6.78911
-6.79313
-6.79588
-6.79788
-6.79951
-6.801
-6.80252
-6.8042
-6.80614
-6.80841
-6.81108
-6.81419
-6.81777
-6.82188
-6.82654
-6.83179
-6.83766
-6.8442
-6.85144
-6.85943
-6.86818
-6.87775
-6.88818
-6.89948
-6.91168
-6.92482
-6.9389
-6.95393
-6.96992
-6.98687
-7.00479
-7.02368
-7.04354
-7.06435
-7.08603
-7.10853
-7.13178
-7.15574
-7.18036
-7.20559
-7.23144
-7.25785
-7.28475
-7.31208
-7.33978
-7.36779
-7.39605
-7.4245
-7.45309
-7.48174
-7.51039
-7.53897
-7.56741
-7.59561
-7.62351
-7.651
-7.678
-7.7044
-7.73008
-7.75494
-7.77886
-7.80169
-7.82331
-7.84357
-7.86232
-7.87941
-7.89467
-7.90793
-7.91902
-7.92775
-7.93396
-7.93744
-7.93801
-7.93548
-7.92964
-7.9203
-7.90727
-7.89034
-7.86932
-7.84402
-7.81425
-7.77981
-7.74052
-7.6962
-7.64667
-7.59178
-7.53135
-7.46523
-7.39328
-7.31535
-7.23132
-7.14107
-7.04448
-6.94146
-6.83192
-6.71579
-6.59303
-6.46358
-6.32743
-6.18455
-6.03492
-5.87856
-5.71546
-5.54566
-5.36922
-5.18618
-4.99662
-4.80064
-4.59833
-4.38982
-4.17524
-3.95475
-3.7285
-3.49667
-3.25946
-3.01707
-2.7697
-2.5176
-2.261
-2.00015
-1.73531
-1.46674
-1.19473
-0.919557
-0.641515
-0.360904
-0.0780125
0.206871
0.493419
0.78131
1.07026
1.35999
1.65019
1.94054
2.23073
2.52049
2.80952
3.09755
3.38428
3.66946
3.95282
4.23412
4.51311
4.78956
5.06326
5.33398
5.60154
5.86575
6.12643
6.38342
6.63657
6.88573
7.13079
7.37163
7.60813
7.84022
8.06778
8.29076
8.50908
8.72267
8.93148
9.13544
9.33451
9.5287
9.71798
9.90229
10.0816
10.2559
10.4251
10.5894
10.7487
10.9033
11.0533
11.1989
11.3412
11.4776
11.6199
11.7181
-6.77674
-6.7803
-6.78607
-6.79103
-6.79456
-6.79722
-6.79944
-6.80147
-6.80348
-6.80561
-6.80798
-6.81067
-6.81374
-6.81724
-6.82121
-6.82571
-6.83076
-6.8364
-6.84267
-6.8496
-6.85724
-6.86561
-6.87476
-6.88472
-6.89551
-6.90717
-6.91972
-6.93318
-6.94756
-6.96287
-6.9791
-6.99626
-7.01432
-7.03329
-7.05313
-7.07382
-7.09532
-7.1176
-7.1406
-7.1643
-7.18865
-7.21362
-7.23917
-7.26525
-7.29181
-7.31879
-7.34615
-7.37383
-7.40178
-7.42994
-7.45826
-7.48667
-7.5151
-7.54348
-7.57175
-7.59981
-7.62759
-7.655
-7.68194
-7.7083
-7.73398
-7.75886
-7.78282
-7.80572
-7.82742
-7.84779
-7.86668
-7.88391
-7.89934
-7.91278
-7.92407
-7.93302
-7.93945
-7.94317
-7.94398
-7.9417
-7.93613
-7.92706
-7.9143
-7.89765
-7.87692
-7.85191
-7.82243
-7.78829
-7.7493
-7.70529
-7.65607
-7.60149
-7.54138
-7.47558
-7.40395
-7.32636
-7.24266
-7.15275
-7.05652
-6.95387
-6.84471
-6.72897
-6.60661
-6.47757
-6.34182
-6.19934
-6.05012
-5.89416
-5.73148
-5.5621
-5.38607
-5.20345
-5.01431
-4.81875
-4.61687
-4.40879
-4.19464
-3.97457
-3.74874
-3.51733
-3.28054
-3.03856
-2.79161
-2.53991
-2.28371
-2.02325
-1.75879
-1.4906
-1.21896
-0.944142
-0.666448
-0.386173
-0.1036
0.180964
0.467195
0.754785
1.04346
1.33294
1.6229
1.91302
2.203
2.49257
2.78142
3.06928
3.35587
3.64092
3.92418
4.20539
4.48431
4.7607
5.03436
5.30507
5.57262
5.83684
6.09755
6.35459
6.6078
6.85705
7.10221
7.34316
7.57978
7.812
8.0397
8.26283
8.4813
8.69505
8.90402
9.10813
9.30736
9.50168
9.69109
9.87553
10.055
10.2294
10.3988
10.5632
10.7226
10.8772
11.0271
11.1723
11.3136
11.4479
11.5874
11.6763
-6.77412
-6.77817
-6.78471
-6.79041
-6.79459
-6.79786
-6.80064
-6.80318
-6.80568
-6.80828
-6.81109
-6.81421
-6.8177
-6.82162
-6.82601
-6.83092
-6.83639
-6.84244
-6.84913
-6.85648
-6.86452
-6.8733
-6.88285
-6.89318
-6.90434
-6.91635
-6.92922
-6.94297
-6.9576
-6.97312
-6.98953
-7.00682
-7.02496
-7.04396
-7.06377
-7.08438
-7.10576
-7.12787
-7.15069
-7.17418
-7.19832
-7.22306
-7.24837
-7.27421
-7.30052
-7.32727
-7.3544
-7.38186
-7.40961
-7.43759
-7.46573
-7.49399
-7.5223
-7.55059
-7.57878
-7.60679
-7.63455
-7.66195
-7.6889
-7.71531
-7.74105
-7.76601
-7.79006
-7.81308
-7.83492
-7.85543
-7.87447
-7.89188
-7.90749
-7.92112
-7.9326
-7.94175
-7.94839
-7.95231
-7.95333
-7.95125
-7.94588
-7.93701
-7.92445
-7.908
-7.88746
-7.86263
-7.83333
-7.79936
-7.76054
-7.71669
-7.66764
-7.61322
-7.55326
-7.48762
-7.41615
-7.33871
-7.25517
-7.16542
-7.06935
-6.96687
-6.85789
-6.74234
-6.62016
-6.49131
-6.35576
-6.21348
-6.06445
-5.90869
-5.74621
-5.57704
-5.40122
-5.21882
-5.0299
-4.83456
-4.63291
-4.42505
-4.21114
-3.9913
-3.76572
-3.53456
-3.29801
-3.05627
-2.80957
-2.55812
-2.30217
-2.04196
-1.77775
-1.50981
-1.2384
-0.96383
-0.686375
-0.406331
-0.123986
0.160339
0.44633
0.733697
1.02216
1.31145
1.60121
1.89114
2.18095
2.47034
2.75904
3.04674
3.33319
3.61812
3.90125
4.18235
4.46117
4.73748
5.01106
5.28171
5.54922
5.8134
6.07409
6.33112
6.58434
6.83361
7.07879
7.31977
7.55644
7.78871
8.01649
8.23969
8.45824
8.67208
8.88113
9.08534
9.28467
9.47908
9.66857
9.8531
10.0326
10.2071
10.3766
10.5411
10.7005
10.855
11.0046
11.1491
11.2894
11.4215
11.5583
11.6393
-6.77393
-6.7783
-6.78532
-6.79153
-6.79622
-6.79999
-6.80325
-6.80625
-6.80919
-6.81222
-6.81544
-6.81896
-6.82285
-6.82716
-6.83194
-6.83724
-6.84309
-6.84954
-6.85661
-6.86434
-6.87277
-6.88192
-6.89181
-6.90249
-6.91397
-6.92626
-6.9394
-6.95337
-6.9682
-6.98388
-7.0004
-7.01776
-7.03595
-7.05494
-7.07473
-7.09527
-7.11656
-7.13856
-7.16124
-7.18459
-7.20857
-7.23316
-7.25831
-7.28398
-7.31014
-7.33674
-7.36374
-7.39108
-7.41872
-7.44661
-7.47469
-7.5029
-7.53118
-7.55945
-7.58765
-7.6157
-7.6435
-7.67097
-7.69801
-7.72451
-7.75037
-7.77546
-7.79966
-7.82283
-7.84483
-7.86552
-7.88473
-7.90232
-7.91811
-7.93192
-7.94358
-7.95291
-7.95971
-7.9638
-7.96498
-7.96305
-7.95781
-7.94907
-7.93662
-7.92027
-7.89982
-7.87507
-7.84584
-7.81193
-7.77315
-7.72934
-7.68032
-7.62592
-7.56597
-7.50034
-7.42887
-7.35143
-7.2679
-7.17815
-7.08209
-6.97961
-6.87065
-6.75511
-6.63296
-6.50413
-6.3686
-6.22635
-6.07736
-5.92164
-5.7592
-5.59008
-5.41431
-5.23197
-5.04312
-4.84786
-4.64628
-4.43852
-4.2247
-4.00497
-3.77949
-3.54845
-3.31202
-3.07041
-2.82384
-2.57254
-2.31673
-2.05667
-1.79262
-1.52483
-1.2536
-0.979187
-0.701897
-0.422016
-0.139849
0.144288
0.430096
0.717283
1.00558
1.29469
1.58429
1.87406
2.1637
2.45293
2.74146
3.02901
3.31531
3.60009
3.88308
4.16405
4.44275
4.71894
4.99242
5.26297
5.53039
5.7945
6.05513
6.3121
6.56527
6.81449
7.05965
7.30061
7.53728
7.76955
7.99733
8.22055
8.43913
8.653
8.86209
9.06635
9.26572
9.46019
9.64973
9.83431
10.0139
10.1884
10.3579
10.5223
10.6817
10.836
10.9852
11.129
11.268
11.3979
11.5323
11.6066
-6.7762
-6.78073
-6.78795
-6.79444
-6.79948
-6.80362
-6.80726
-6.81064
-6.81394
-6.81732
-6.8209
-6.82476
-6.82898
-6.83362
-6.83874
-6.84437
-6.85055
-6.85732
-6.86471
-6.87275
-6.88148
-6.89091
-6.90109
-6.91202
-6.92373
-6.93623
-6.94955
-6.96368
-6.97863
-6.9944
-7.01099
-7.02839
-7.04659
-7.06557
-7.08532
-7.10582
-7.12704
-7.14897
-7.17157
-7.19484
-7.21874
-7.24323
-7.2683
-7.2939
-7.32
-7.34654
-7.3735
-7.40081
-7.42844
-7.45633
-7.48443
-7.51268
-7.54101
-7.56935
-7.59764
-7.62578
-7.6537
-7.68129
-7.70847
-7.73512
-7.76113
-7.78638
-7.81075
-7.83409
-7.85627
-7.87713
-7.89651
-7.91427
-7.93021
-7.94418
-7.95598
-7.96544
-7.97236
-7.97655
-7.97782
-7.97596
-7.97078
-7.96208
-7.94965
-7.93331
-7.91285
-7.88807
-7.85879
-7.82482
-7.78598
-7.74208
-7.69296
-7.63845
-7.57839
-7.51264
-7.44104
-7.36347
-7.27981
-7.18993
-7.09374
-6.99114
-6.88206
-6.76641
-6.64414
-6.51521
-6.37958
-6.23723
-6.08815
-5.93235
-5.76983
-5.60065
-5.42482
-5.24243
-5.05355
-4.85826
-4.65667
-4.44889
-4.23508
-4.01536
-3.78991
-3.5589
-3.32252
-3.08097
-2.83446
-2.58323
-2.32751
-2.06755
-1.8036
-1.53592
-1.2648
-0.99052
-0.71336
-0.433617
-0.151604
0.132371
0.418019
0.705043
0.993173
1.28212
1.57155
1.86114
2.1506
2.43966
2.72801
3.01539
3.30152
3.58613
3.86896
4.14977
4.42831
4.70436
4.9777
5.24811
5.5154
5.77939
6.0399
6.29676
6.54983
6.79897
7.04405
7.28495
7.52155
7.75378
7.98152
8.20471
8.42327
8.63713
8.84622
9.05048
9.24988
9.44437
9.63392
9.81851
9.99809
10.1726
10.3421
10.5064
10.6656
10.8196
10.9683
11.1113
11.249
11.3769
11.5091
11.5777
-6.78078
-6.78531
-6.7925
-6.79906
-6.80428
-6.80865
-6.81255
-6.8162
-6.81977
-6.82341
-6.82725
-6.83137
-6.83585
-6.84073
-6.84609
-6.85195
-6.85836
-6.86535
-6.87296
-6.88121
-6.89013
-6.89974
-6.91008
-6.92117
-6.93301
-6.94564
-6.95906
-6.97327
-6.98829
-7.00411
-7.02073
-7.03814
-7.05634
-7.07531
-7.09503
-7.1155
-7.1367
-7.1586
-7.18118
-7.20442
-7.2283
-7.25278
-7.27784
-7.30345
-7.32956
-7.35613
-7.38312
-7.41049
-7.43819
-7.46617
-7.49436
-7.52272
-7.55117
-7.57965
-7.60808
-7.63637
-7.66444
-7.69219
-7.71953
-7.74635
-7.77253
-7.79795
-7.82247
-7.84598
-7.86831
-7.88931
-7.90883
-7.92671
-7.94277
-7.95683
-7.96871
-7.97823
-7.98519
-7.9894
-7.99067
-7.98879
-7.98357
-7.97481
-7.9623
-7.94586
-7.92527
-7.90036
-7.87092
-7.83678
-7.79774
-7.75365
-7.70431
-7.64958
-7.5893
-7.52331
-7.45147
-7.37367
-7.28976
-7.19965
-7.10323
-7.0004
-6.89109
-6.77523
-6.65275
-6.52362
-6.3878
-6.24527
-6.09601
-5.94005
-5.77738
-5.60805
-5.4321
-5.2496
-5.06061
-4.86523
-4.66356
-4.45573
-4.24187
-4.02212
-3.79665
-3.56563
-3.32926
-3.08773
-2.84126
-2.59008
-2.33443
-2.07454
-1.81067
-1.5431
-1.27209
-0.997929
-0.720901
-0.441307
-0.159457
0.124353
0.409829
0.696671
0.98462
1.27339
1.56262
1.85201
2.14127
2.43012
2.71827
3.00544
3.29136
3.57577
3.8584
4.139
4.41735
4.6932
4.96634
5.23657
5.50369
5.7675
6.02785
6.28456
6.53749
6.78649
7.03144
7.27222
7.50873
7.74086
7.96853
8.19165
8.41015
8.62395
8.83301
9.03725
9.23663
9.43111
9.62066
9.80523
9.98479
10.1593
10.3287
10.4929
10.6519
10.8055
10.9537
11.0958
11.2322
11.3581
11.4883
11.5522
-6.78738
-6.79178
-6.79874
-6.80518
-6.81042
-6.81488
-6.81891
-6.82271
-6.82644
-6.83025
-6.83424
-6.8385
-6.84312
-6.84814
-6.85361
-6.85959
-6.8661
-6.87319
-6.88088
-6.88922
-6.89822
-6.90791
-6.91832
-6.92947
-6.94137
-6.95404
-6.96749
-6.98173
-6.99676
-7.01259
-7.02921
-7.04662
-7.06481
-7.08377
-7.10349
-7.12396
-7.14516
-7.16707
-7.18968
-7.21295
-7.23687
-7.26141
-7.28653
-7.31219
-7.33837
-7.36503
-7.39213
-7.41962
-7.44746
-7.47558
-7.50393
-7.53245
-7.56107
-7.58971
-7.6183
-7.64675
-7.67498
-7.7029
-7.73039
-7.75735
-7.78367
-7.80922
-7.83387
-7.85748
-7.87991
-7.90099
-7.92058
-7.9385
-7.95458
-7.96864
-7.98051
-7.98999
-7.99689
-8.00102
-8.00218
-8.00017
-7.9948
-7.98586
-7.97315
-7.95649
-7.93567
-7.9105
-7.8808
-7.84637
-7.80704
-7.76264
-7.71299
-7.65794
-7.59733
-7.53101
-7.45885
-7.38071
-7.29649
-7.20607
-7.10933
-7.00621
-6.89661
-6.78046
-6.65772
-6.52833
-6.39226
-6.2495
-6.10002
-5.94385
-5.781
-5.61149
-5.43538
-5.25273
-5.06362
-4.86813
-4.66637
-4.45846
-4.24454
-4.02475
-3.79925
-3.56823
-3.33187
-3.09038
-2.84396
-2.59284
-2.33727
-2.07747
-1.81372
-1.54628
-1.27541
-1.00139
-0.724531
-0.445121
-0.163459
0.12016
0.405428
0.69205
0.979787
1.26833
1.55731
1.84646
2.13547
2.42406
2.71196
2.99887
3.28453
3.56868
3.85105
4.1314
4.40949
4.68509
4.95799
5.22798
5.49486
5.75846
6.01859
6.27509
6.52783
6.77665
7.02143
7.26205
7.49841
7.7304
7.95795
8.18096
8.39936
8.61309
8.82207
9.02626
9.2256
9.42005
9.60957
9.79412
9.97364
10.1481
10.3174
10.4815
10.6402
10.7934
10.941
11.0822
11.2173
11.3414
11.4696
11.5298
-6.79563
-6.79981
-6.80638
-6.81256
-6.81768
-6.8221
-6.82612
-6.82994
-6.83369
-6.83753
-6.84154
-6.84581
-6.85042
-6.85543
-6.86089
-6.86684
-6.87334
-6.8804
-6.88808
-6.89639
-6.90537
-6.91504
-6.92543
-6.93655
-6.94843
-6.96108
-6.9745
-6.98872
-7.00373
-7.01953
-7.03614
-7.05353
-7.07171
-7.09068
-7.11041
-7.1309
-7.15214
-7.17411
-7.19677
-7.22011
-7.2441
-7.26871
-7.29392
-7.3197
-7.346
-7.3728
-7.40006
-7.42772
-7.45573
-7.48403
-7.51256
-7.54125
-7.57002
-7.59881
-7.62754
-7.65612
-7.68447
-7.71249
-7.74007
-7.76712
-7.7935
-7.81909
-7.84377
-7.86739
-7.8898
-7.91085
-7.93038
-7.94823
-7.96421
-7.97815
-7.98987
-7.99918
-8.00589
-8.00981
-8.01073
-8.00847
-8.00281
-7.99358
-7.98056
-7.96357
-7.9424
-7.91687
-7.88679
-7.85199
-7.81227
-7.76747
-7.71743
-7.66197
-7.60097
-7.53425
-7.46171
-7.3832
-7.2986
-7.20782
-7.11074
-7.00727
-6.89735
-6.7809
-6.65786
-6.5282
-6.39187
-6.24886
-6.09917
-5.94279
-5.77975
-5.61008
-5.43382
-5.25105
-5.06183
-4.86625
-4.66442
-4.45647
-4.24252
-4.02272
-3.79724
-3.56626
-3.32995
-3.08852
-2.8422
-2.59119
-2.33574
-2.0761
-1.81251
-1.54524
-1.27456
-1.00075
-0.724128
-0.444961
-0.163538
0.119827
0.404815
0.69116
0.978626
1.26687
1.55554
1.84436
2.13306
2.42133
2.7089
2.99549
3.28082
3.56464
3.84668
4.12671
4.40449
4.67978
4.95237
5.22206
5.48865
5.75197
6.01183
6.26807
6.52056
6.76914
7.0137
7.25412
7.49028
7.7221
7.94949
8.17236
8.39063
8.60425
8.81314
9.01726
9.21654
9.41093
9.60041
9.78491
9.96437
10.1387
10.3079
10.4718
10.6303
10.7831
10.93
11.0702
11.2041
11.3265
11.4528
11.5101
-6.80519
-6.80907
-6.81516
-6.82095
-6.82581
-6.83004
-6.83391
-6.83759
-6.84121
-6.8449
-6.84877
-6.8529
-6.85737
-6.86223
-6.86754
-6.87336
-6.87971
-6.88664
-6.89419
-6.90238
-6.91124
-6.92081
-6.9311
-6.94213
-6.95392
-6.96649
-6.97985
-6.994
-7.00895
-7.02472
-7.04129
-7.05868
-7.07686
-7.09583
-7.11558
-7.1361
-7.15737
-7.17937
-7.20209
-7.2255
-7.24957
-7.27429
-7.29962
-7.32554
-7.352
-7.37896
-7.40637
-7.43419
-7.46235
-7.49079
-7.51944
-7.54824
-7.57711
-7.60596
-7.63474
-7.66334
-7.69169
-7.71969
-7.74724
-7.77422
-7.80052
-7.82602
-7.85057
-7.87404
-7.89628
-7.91714
-7.93646
-7.95406
-7.96979
-7.98345
-7.99488
-8.00387
-8.01025
-8.01381
-8.01436
-8.01172
-8.00567
-7.99602
-7.98258
-7.96516
-7.94356
-7.91759
-7.88707
-7.85181
-7.81165
-7.7664
-7.71592
-7.66003
-7.59859
-7.53147
-7.45852
-7.37962
-7.29465
-7.2035
-7.10608
-7.00229
-6.89206
-6.77532
-6.65201
-6.5221
-6.38554
-6.24233
-6.09245
-5.9359
-5.77272
-5.60293
-5.42657
-5.24372
-5.05445
-4.85884
-4.65701
-4.44907
-4.23516
-4.01543
-3.79003
-3.55915
-3.32297
-3.0817
-2.83554
-2.58473
-2.32949
-2.07007
-1.80673
-1.53973
-1.26933
-0.995839
-0.719536
-0.440683
-0.159586
0.123425
0.40804
0.694036
0.981147
1.26899
1.55725
1.84568
2.13397
2.42183
2.70899
2.99517
3.2801
3.56351
3.84515
4.12478
4.40216
4.67707
4.94929
5.21861
5.48485
5.74781
6.00734
6.26327
6.51545
6.76375
7.00804
7.2482
7.48413
7.71574
7.94293
8.16562
8.38374
8.59722
8.806
9.01002
9.20922
9.40356
9.59297
9.77741
9.95681
10.1311
10.3001
10.4638
10.622
10.7743
10.9206
11.0599
11.1926
11.3134
11.4378
11.4931
-6.81573
-6.81929
-6.82484
-6.83015
-6.83461
-6.8385
-6.84204
-6.84539
-6.8487
-6.85208
-6.85564
-6.85947
-6.86364
-6.86822
-6.87327
-6.87882
-6.88492
-6.89162
-6.89894
-6.90693
-6.9156
-6.92498
-6.9351
-6.94598
-6.95764
-6.97009
-6.98334
-6.99739
-7.01226
-7.02794
-7.04444
-7.06177
-7.0799
-7.09884
-7.11858
-7.13909
-7.16036
-7.18239
-7.20515
-7.22864
-7.25281
-7.27764
-7.30308
-7.3291
-7.35565
-7.38268
-7.41015
-7.438
-7.46618
-7.49462
-7.52326
-7.55201
-7.5808
-7.60954
-7.63818
-7.66661
-7.69478
-7.72257
-7.74988
-7.77661
-7.80264
-7.82784
-7.85207
-7.8752
-7.89709
-7.91757
-7.9365
-7.9537
-7.96901
-7.98225
-7.99323
-8.00177
-8.00769
-8.01079
-8.01087
-8.00774
-8.00121
-7.99108
-7.97715
-7.95924
-7.93715
-7.9107
-7.87969
-7.84396
-7.80333
-7.75763
-7.70669
-7.65037
-7.58852
-7.52101
-7.44768
-7.36842
-7.28311
-7.19164
-7.09392
-6.98985
-6.87937
-6.7624
-6.63889
-6.5088
-6.37209
-6.22874
-6.07876
-5.92214
-5.7589
-5.58908
-5.41272
-5.22989
-5.04066
-4.84513
-4.64339
-4.43557
-4.22181
-4.00225
-3.77705
-3.54639
-3.31045
-3.06944
-2.82357
-2.57306
-2.31816
-2.05909
-1.79611
-1.5295
-1.25952
-0.986451
-0.71056
-0.432131
-0.151487
0.131046
0.415183
0.700737
0.987376
1.2747
1.56245
1.85037
2.13815
2.42551
2.71216
2.99783
3.28226
3.56517
3.84632
4.12547
4.40237
4.67681
4.94858
5.21746
5.48326
5.74582
6.00495
6.2605
6.51232
6.76028
7.00425
7.24411
7.47977
7.71112
7.93808
8.16057
8.37851
8.59183
8.80048
9.00439
9.2035
9.39776
9.58711
9.77149
9.95082
10.125
10.2939
10.4574
10.6153
10.7672
10.9128
11.0512
11.1827
11.302
11.4246
11.4784
-6.8271
-6.83035
-6.83537
-6.84012
-6.84405
-6.8474
-6.8504
-6.85322
-6.856
-6.85887
-6.86194
-6.86529
-6.86902
-6.87317
-6.87781
-6.88298
-6.88873
-6.89509
-6.90211
-6.9098
-6.9182
-6.92733
-6.93721
-6.94786
-6.9593
-6.97154
-6.9846
-6.99849
-7.0132
-7.02873
-7.04509
-7.06227
-7.08028
-7.09912
-7.11877
-7.13922
-7.16045
-7.18245
-7.20519
-7.22865
-7.25278
-7.27756
-7.30293
-7.32886
-7.3553
-7.38219
-7.4095
-7.43715
-7.46511
-7.49331
-7.52168
-7.55016
-7.57864
-7.60705
-7.6353
-7.66334
-7.69107
-7.71842
-7.74528
-7.77153
-7.79706
-7.82174
-7.84545
-7.86805
-7.88939
-7.90933
-7.92771
-7.94436
-7.95912
-7.97181
-7.98224
-7.99024
-7.99562
-7.99817
-7.99772
-7.99407
-7.98701
-7.97637
-7.96194
-7.94353
-7.92096
-7.89403
-7.86257
-7.8264
-7.78533
-7.73922
-7.6879
-7.63122
-7.56904
-7.5012
-7.42757
-7.34803
-7.26247
-7.17078
-7.07286
-6.96863
-6.858
-6.74092
-6.61732
-6.48716
-6.35042
-6.20707
-6.05711
-5.90054
-5.73738
-5.56766
-5.39143
-5.20876
-5.01971
-4.82439
-4.62289