/*--------------------------------*- C++ -*----------------------------------*\
| =========                 |                                                 |
| \\      /  F ield         | OpenFOAM: The Open Source CFD Toolbox           |
|  \\    /   O peration     | Version:  5.x                                   |
|   \\  /    A nd           | Web:      www.OpenFOAM.org                      |
|    \\/     M anipulation  |                                                 |
\*---------------------------------------------------------------------------*/
FoamFile
{
    version     2.0;
    format      ascii;
    class       surfaceScalarField;
    location    "1000";
    object      phi;
}
// * * * * * * * * * * * * * * * * * * * * * * * * * * * * * * * * * * * * * //

dimensions      [0 3 -1 0 0 0 0];

internalField   nonuniform List<scalar> 
24170
(
3.07328e-06
6.06134e-08
2.98873e-06
8.45468e-08
2.914e-06
7.47326e-08
2.84409e-06
6.99169e-08
2.77875e-06
6.53367e-08
2.7208e-06
5.79499e-08
2.67122e-06
4.95798e-08
2.62929e-06
4.19285e-08
2.59384e-06
3.54415e-08
2.56376e-06
3.00804e-08
2.538e-06
2.57565e-08
2.51571e-06
2.22962e-08
2.49619e-06
1.95221e-08
2.47891e-06
1.72751e-08
2.46352e-06
1.53983e-08
2.44923e-06
1.42949e-08
2.43638e-06
1.28461e-08
1.58036e-08
2.42057e-06
3.49417e-06
2.28855e-08
3.49785e-06
8.08785e-08
3.49084e-06
8.17441e-08
3.4786e-06
8.21527e-08
3.46291e-06
8.10269e-08
3.44469e-06
7.6175e-08
3.42444e-06
6.98273e-08
3.40285e-06
6.35147e-08
3.38067e-06
5.7626e-08
3.35849e-06
5.22547e-08
3.33684e-06
4.74061e-08
3.31601e-06
4.3126e-08
3.2962e-06
3.93319e-08
3.27744e-06
3.60351e-08
3.25982e-06
3.3021e-08
3.24321e-06
3.09033e-08
3.22804e-06
2.80154e-08
2.79598e-08
3.21587e-06
3.81776e-06
1.73188e-08
3.82931e-06
6.93319e-08
3.83605e-06
7.50002e-08
3.84057e-06
7.7634e-08
3.84249e-06
7.91064e-08
3.84165e-06
7.70214e-08
3.83846e-06
7.30172e-08
3.83343e-06
6.85355e-08
3.827e-06
6.40579e-08
3.81952e-06
5.97374e-08
3.81129e-06
5.56353e-08
3.80258e-06
5.18373e-08
3.79359e-06
4.83157e-08
3.7845e-06
4.5124e-08
3.77541e-06
4.21124e-08
3.76666e-06
3.96523e-08
3.75784e-06
3.68287e-08
3.50296e-08
3.75076e-06
4.2045e-06
1.73808e-08
4.21552e-06
5.83127e-08
4.2228e-06
6.77235e-08
4.2289e-06
7.15317e-08
4.23383e-06
7.41795e-08
4.23718e-06
7.36722e-08
4.23916e-06
7.1035e-08
4.24005e-06
6.76465e-08
4.24004e-06
6.40677e-08
4.23929e-06
6.0484e-08
4.23795e-06
5.6976e-08
4.23614e-06
5.36424e-08
4.23398e-06
5.04819e-08
4.23155e-06
4.75436e-08
4.22893e-06
4.4736e-08
4.22633e-06
4.22399e-08
4.22352e-06
3.96318e-08
3.72415e-08
4.2213e-06
4.63826e-06
1.6428e-08
4.64695e-06
4.9622e-08
4.65319e-06
6.14869e-08
4.65877e-06
6.59515e-08
4.66405e-06
6.88986e-08
4.66852e-06
6.91984e-08
4.67214e-06
6.74135e-08
4.67504e-06
6.4751e-08
4.67731e-06
6.17916e-08
4.67907e-06
5.87315e-08
4.68038e-06
5.56612e-08
4.68135e-06
5.26769e-08
4.68203e-06
4.98014e-08
4.6825e-06
4.70708e-08
4.68279e-06
4.44389e-08
4.68305e-06
4.19793e-08
4.68318e-06
3.94908e-08
3.69973e-08
4.68342e-06
5.11638e-06
1.4645e-08
5.12329e-06
4.27086e-08
5.12915e-06
5.56235e-08
5.13451e-06
6.05962e-08
5.13982e-06
6.35855e-08
5.14466e-06
6.4364e-08
5.14887e-06
6.32026e-08
5.15253e-06
6.10864e-08
5.15573e-06
5.85931e-08
5.15853e-06
5.59317e-08
5.16099e-06
5.32033e-08
5.16317e-06
5.04973e-08
5.16511e-06
4.78538e-08
5.16688e-06
4.5299e-08
5.1685e-06
4.28155e-08
5.17005e-06
4.04228e-08
5.17151e-06
3.80232e-08
3.55776e-08
5.17293e-06
5.64281e-06
1.28422e-08
5.64873e-06
3.67891e-08
5.65463e-06
4.97187e-08
5.66002e-06
5.52111e-08
5.66534e-06
5.82648e-08
5.67033e-06
5.9374e-08
5.67482e-06
5.87056e-08
5.67888e-06
5.70337e-08
5.68255e-06
5.4917e-08
5.6859e-06
5.25813e-08
5.68897e-06
5.01363e-08
5.6918e-06
4.76667e-08
5.69443e-06
4.52218e-08
5.6969e-06
4.28258e-08
5.69924e-06
4.04758e-08
5.70149e-06
3.81705e-08
5.70364e-06
3.58631e-08
3.35206e-08
5.7057e-06
4.40734e-06
1.16172e-08
4.41112e-06
3.30074e-08
4.41535e-06
4.54822e-08
4.4193e-06
5.1264e-08
4.42314e-06
5.44206e-08
4.42681e-06
5.57056e-08
4.43019e-06
5.53236e-08
4.43329e-06
5.39372e-08
4.43614e-06
5.20665e-08
4.43878e-06
4.99426e-08
4.44123e-06
4.76818e-08
4.44353e-06
4.53689e-08
4.44569e-06
4.30571e-08
4.44775e-06
4.07712e-08
4.4497e-06
3.85151e-08
4.45159e-06
3.6285e-08
4.45339e-06
3.40532e-08
3.17972e-08
4.45511e-06
5.1411e-06
1.03739e-08
5.14488e-06
2.92221e-08
5.14934e-06
4.10274e-08
5.15363e-06
4.69754e-08
5.15784e-06
5.02065e-08
5.16191e-06
5.16404e-08
5.1657e-06
5.15283e-08
5.16922e-06
5.04227e-08
5.17248e-06
4.87987e-08
5.17554e-06
4.68901e-08
5.1784e-06
4.48185e-08
5.1811e-06
4.2669e-08
5.18366e-06
4.04972e-08
5.18609e-06
3.83308e-08
5.18843e-06
3.61794e-08
5.19067e-06
3.40407e-08
5.19282e-06
3.19007e-08
2.9752e-08
5.19486e-06
5.99706e-06
9.1104e-09
6.00079e-06
2.54902e-08
6.00539e-06
3.64195e-08
6.01e-06
4.23679e-08
6.01458e-06
4.56227e-08
6.01906e-06
4.71657e-08
6.02329e-06
4.72964e-08
6.02725e-06
4.64623e-08
6.03097e-06
4.50841e-08
6.03446e-06
4.33952e-08
6.03776e-06
4.15202e-08
6.04088e-06
3.95438e-08
6.04386e-06
3.75232e-08
6.04669e-06
3.54905e-08
6.04941e-06
3.34586e-08
6.05202e-06
3.14318e-08
6.05451e-06
2.94052e-08
2.73826e-08
6.05688e-06
6.99554e-06
7.84096e-09
6.99916e-06
2.18619e-08
7.00387e-06
3.17147e-08
7.00876e-06
3.74706e-08
7.0137e-06
4.06848e-08
7.01858e-06
4.22858e-08
7.02326e-06
4.26147e-08
7.02769e-06
4.20317e-08
7.03188e-06
4.08942e-08
7.03585e-06
3.94274e-08
7.03961e-06
3.77567e-08
7.04319e-06
3.59655e-08
7.0466e-06
3.41119e-08
7.04986e-06
3.22298e-08
7.05298e-06
3.03388e-08
7.05596e-06
2.84471e-08
7.05881e-06
2.6558e-08
2.46848e-08
7.06151e-06
8.16027e-06
6.58719e-09
8.16377e-06
1.8358e-08
8.16852e-06
2.69703e-08
8.17366e-06
3.23282e-08
8.17893e-06
3.5413e-08
8.1842e-06
3.70103e-08
8.18934e-06
3.74788e-08
8.19426e-06
3.71127e-08
8.19895e-06
3.62037e-08
8.20342e-06
3.49576e-08
8.20768e-06
3.3498e-08
8.21174e-06
3.1905e-08
8.21561e-06
3.02354e-08
8.21932e-06
2.85262e-08
8.22286e-06
2.67998e-08
8.22623e-06
2.50704e-08
8.22944e-06
2.33464e-08
2.16465e-08
8.23248e-06
9.51895e-06
5.36493e-09
9.52233e-06
1.49805e-08
9.52706e-06
2.22347e-08
9.5324e-06
2.6992e-08
9.53798e-06
2.98305e-08
9.54364e-06
3.13496e-08
9.54923e-06
3.18885e-08
9.55465e-06
3.16918e-08
9.55987e-06
3.09889e-08
9.56487e-06
2.99576e-08
9.56965e-06
2.87126e-08
9.57423e-06
2.73302e-08
9.5786e-06
2.58636e-08
9.58278e-06
2.43507e-08
9.58676e-06
2.2816e-08
9.59055e-06
2.12777e-08
9.59415e-06
1.97473e-08
1.82465e-08
9.59755e-06
1.11039e-05
4.18118e-09
1.11072e-05
1.17159e-08
1.11119e-05
1.75298e-08
1.11173e-05
2.15038e-08
1.11232e-05
2.39584e-08
1.11293e-05
2.53095e-08
1.11353e-05
2.58423e-08
1.11412e-05
2.57563e-08
1.1147e-05
2.52271e-08
1.11526e-05
2.43973e-08
1.11579e-05
2.33676e-08
1.1163e-05
2.22058e-08
1.11679e-05
2.0961e-08
1.11726e-05
1.96681e-08
1.11771e-05
1.83533e-08
1.11813e-05
1.70353e-08
1.11853e-05
1.57272e-08
1.44512e-08
1.11891e-05
1.29528e-05
3.03139e-09
1.2956e-05
8.53094e-09
1.29607e-05
1.28411e-08
1.29663e-05
1.58753e-08
1.29724e-05
1.78012e-08
1.29789e-05
1.88813e-08
1.29854e-05
1.93254e-08
1.29919e-05
1.92857e-08
1.29982e-05
1.88893e-08
1.30043e-05
1.82421e-08
1.30103e-05
1.74239e-08
1.3016e-05
1.64911e-08
1.30215e-05
1.54849e-08
1.30267e-05
1.4436e-08
1.30317e-05
1.33679e-08
1.30364e-05
1.22985e-08
1.30409e-05
1.12402e-08
1.02133e-08
1.30452e-05
1.51096e-05
1.89701e-09
1.51128e-05
5.36416e-09
1.51175e-05
8.10299e-09
1.51233e-05
1.00613e-08
1.51298e-05
1.13183e-08
1.51367e-05
1.20182e-08
1.51437e-05
1.22899e-08
1.51507e-05
1.22319e-08
1.51577e-05
1.19255e-08
1.51645e-05
1.14394e-08
1.51711e-05
1.0828e-08
1.51775e-05
1.01314e-08
1.51836e-05
9.38017e-09
1.51894e-05
8.59763e-09
1.5195e-05
7.80207e-09
1.52003e-05
7.00812e-09
1.52053e-05
6.22577e-09
5.4722e-09
1.521e-05
1.76256e-05
7.42224e-10
1.76289e-05
2.10749e-09
1.76338e-05
3.17352e-09
1.76399e-05
3.92107e-09
1.76469e-05
4.37643e-09
1.76543e-05
4.59215e-09
1.7662e-05
4.61495e-09
1.76697e-05
4.48385e-09
1.76774e-05
4.23296e-09
1.7685e-05
3.89292e-09
1.76923e-05
3.48835e-09
1.76994e-05
3.03955e-09
1.77062e-05
2.56232e-09
1.77127e-05
2.07024e-09
1.7719e-05
1.5739e-09
1.77249e-05
1.08277e-09
1.77305e-05
6.02769e-10
1.46916e-10
1.77358e-05
1.78273e-05
-3.47723e-10
1.78304e-05
-9.82905e-10
1.78351e-05
-1.53205e-09
1.7841e-05
-1.97909e-09
1.78477e-05
-2.32812e-09
1.78549e-05
-2.60588e-09
1.78623e-05
-2.84423e-09
1.78699e-05
-3.06315e-09
1.78774e-05
-3.27203e-09
1.78848e-05
-3.4783e-09
1.78919e-05
-3.68577e-09
1.78989e-05
-3.89611e-09
1.79055e-05
-4.10732e-09
1.79119e-05
-4.31753e-09
1.7918e-05
-4.52317e-09
1.79238e-05
-4.72153e-09
1.79294e-05
-4.90993e-09
-5.08028e-09
1.79346e-05
1.58823e-05
-1.32818e-09
1.58851e-05
-3.75873e-09
1.58893e-05
-5.76833e-09
1.58946e-05
-7.28159e-09
1.59006e-05
-8.324e-09
1.5907e-05
-9.0129e-09
1.59136e-05
-9.4616e-09
1.59203e-05
-9.73811e-09
1.59269e-05
-9.89126e-09
1.59334e-05
-9.96239e-09
1.59397e-05
-9.98369e-09
1.59458e-05
-9.97374e-09
1.59516e-05
-9.94449e-09
1.59572e-05
-9.902e-09
1.59626e-05
-9.85073e-09
1.59676e-05
-9.79159e-09
1.59724e-05
-9.72627e-09
-9.64897e-09
1.5977e-05
1.41496e-05
-2.25398e-09
1.41522e-05
-6.38789e-09
1.41562e-05
-9.79726e-09
1.41612e-05
-1.22814e-08
1.41668e-05
-1.38991e-08
1.41727e-05
-1.49059e-08
1.41787e-05
-1.54993e-08
1.41848e-05
-1.5785e-08
1.41908e-05
-1.58481e-08
1.41966e-05
-1.57673e-08
1.42022e-05
-1.55977e-08
1.42076e-05
-1.53735e-08
1.42127e-05
-1.5116e-08
1.42177e-05
-1.48398e-08
1.42224e-05
-1.45539e-08
1.42269e-05
-1.42634e-08
1.42311e-05
-1.39716e-08
-1.36756e-08
1.42351e-05
1.26059e-05
-3.13732e-09
1.26085e-05
-8.97244e-09
1.26125e-05
-1.37973e-08
1.26174e-05
-1.71509e-08
1.26227e-05
-1.92113e-08
1.26282e-05
-2.04474e-08
1.26338e-05
-2.11175e-08
1.26394e-05
-2.13497e-08
1.26448e-05
-2.12777e-08
1.26501e-05
-2.10196e-08
1.26551e-05
-2.06494e-08
1.266e-05
-2.02107e-08
1.26646e-05
-1.97324e-08
1.2669e-05
-1.92355e-08
1.26732e-05
-1.87324e-08
1.26771e-05
-1.82308e-08
1.26809e-05
-1.77347e-08
-1.7243e-08
1.26845e-05
1.12306e-05
-3.9325e-09
1.12332e-05
-1.15841e-08
1.12373e-05
-1.79263e-08
1.12422e-05
-2.19818e-08
1.12473e-05
-2.43268e-08
1.12526e-05
-2.57211e-08
1.12578e-05
-2.64035e-08
1.1263e-05
-2.65157e-08
1.1268e-05
-2.62617e-08
1.12728e-05
-2.58007e-08
1.12773e-05
-2.52178e-08
1.12817e-05
-2.45617e-08
1.12858e-05
-2.38683e-08
1.12898e-05
-2.31616e-08
1.12935e-05
-2.24567e-08
1.1297e-05
-2.17609e-08
1.13004e-05
-2.10794e-08
-2.04106e-08
1.13035e-05
1.00052e-05
-4.53967e-09
1.00079e-05
-1.42637e-08
1.00123e-05
-2.23139e-08
1.00171e-05
-2.68172e-08
1.00221e-05
-2.92857e-08
1.00271e-05
-3.07699e-08
1.00321e-05
-3.13853e-08
1.00369e-05
-3.13128e-08
1.00415e-05
-3.08439e-08
1.00459e-05
-3.0165e-08
1.005e-05
-2.93621e-08
1.00539e-05
-2.84887e-08
1.00576e-05
-2.75854e-08
1.00612e-05
-2.66791e-08
1.00645e-05
-2.57843e-08
1.00676e-05
-2.49089e-08
1.00706e-05
-2.40567e-08
-2.32271e-08
1.00734e-05
8.91342e-06
-4.85823e-09
8.91627e-06
-1.71187e-08
8.92087e-06
-2.69062e-08
8.92562e-06
-3.15724e-08
8.93048e-06
-3.41394e-08
8.93537e-06
-3.56629e-08
8.94009e-06
-3.61047e-08
8.94456e-06
-3.57798e-08
8.94878e-06
-3.50709e-08
8.95278e-06
-3.41645e-08
8.95656e-06
-3.31374e-08
8.96012e-06
-3.20457e-08
8.96346e-06
-3.09344e-08
8.96662e-06
-2.98315e-08
8.96958e-06
-2.87513e-08
8.97238e-06
-2.77012e-08
8.97501e-06
-2.66839e-08
-2.56965e-08
8.97748e-06
7.94029e-06
-4.48272e-09
7.9439e-06
-2.07223e-08
7.94845e-06
-3.14647e-08
7.9529e-06
-3.60169e-08
7.95768e-06
-3.89171e-08
7.96253e-06
-4.05121e-08
7.96712e-06
-4.0698e-08
7.97139e-06
-4.0055e-08
7.97538e-06
-3.90563e-08
7.97909e-06
-3.78771e-08
7.98254e-06
-3.6587e-08
7.98574e-06
-3.52461e-08
7.98871e-06
-3.39019e-08
7.99146e-06
-3.25816e-08
7.99401e-06
-3.12999e-08
7.99637e-06
-3.00634e-08
7.99856e-06
-2.88749e-08
-2.77307e-08
8.0006e-06
7.07144e-06
-1.59129e-09
7.07705e-06
-2.63332e-08
7.08197e-06
-3.6381e-08
7.08647e-06
-4.05224e-08
7.09142e-06
-4.38672e-08
7.09633e-06
-4.54235e-08
7.10086e-06
-4.52275e-08
7.10498e-06
-4.41694e-08
7.1087e-06
-4.27793e-08
7.11204e-06
-4.12199e-08
7.11503e-06
-3.95686e-08
7.11768e-06
-3.78951e-08
7.12002e-06
-3.62496e-08
7.1221e-06
-3.46569e-08
7.12393e-06
-3.31318e-08
7.12555e-06
-3.16787e-08
7.12697e-06
-3.02987e-08
-2.89783e-08
7.12822e-06
6.29507e-06
5.85063e-09
6.30331e-06
-3.45721e-08
6.31001e-06
-4.30791e-08
6.31612e-06
-4.66368e-08
6.322e-06
-4.97518e-08
6.32707e-06
-5.04897e-08
6.33123e-06
-4.93898e-08
6.33465e-06
-4.7588e-08
6.33744e-06
-4.55676e-08
6.33966e-06
-4.34396e-08
6.34137e-06
-4.12757e-08
6.34262e-06
-3.91505e-08
6.34349e-06
-3.71135e-08
6.34401e-06
-3.51825e-08
6.34425e-06
-3.33712e-08
6.34425e-06
-3.16796e-08
6.34406e-06
-3.01085e-08
-2.86318e-08
6.34372e-06
5.6101e-06
1.06515e-08
5.61835e-06
-4.28271e-08
5.62589e-06
-5.06193e-08
5.63325e-06
-5.3991e-08
5.63958e-06
-5.60818e-08
5.64401e-06
-5.49223e-08
5.64655e-06
-5.19256e-08
5.64753e-06
-4.85683e-08
5.64728e-06
-4.53247e-08
5.64608e-06
-4.22328e-08
5.64411e-06
-3.93098e-08
5.64156e-06
-3.65955e-08
5.63855e-06
-3.41057e-08
5.6352e-06
-3.18351e-08
5.63161e-06
-2.97751e-08
5.62785e-06
-2.79235e-08
5.62402e-06
-2.62763e-08
-2.47537e-08
5.62014e-06
5.03203e-06
-1.90711e-08
5.03726e-06
-4.80579e-08
5.03796e-06
-5.13249e-08
5.03608e-06
-5.21054e-08
5.03236e-06
-5.23626e-08
5.02647e-06
-4.90338e-08
5.01841e-06
-4.38629e-08
5.00864e-06
-3.87949e-08
4.99768e-06
-3.43637e-08
4.98598e-06
-3.05352e-08
4.97391e-06
-2.72411e-08
4.96174e-06
-2.4427e-08
4.94966e-06
-2.20231e-08
4.93779e-06
-1.99687e-08
4.92623e-06
-1.82113e-08
4.91506e-06
-1.67486e-08
4.90439e-06
-1.56138e-08
-1.5269e-08
4.89491e-06
4.43748e-06
4.38942e-06
4.3381e-06
4.28599e-06
4.23363e-06
4.18459e-06
4.14073e-06
4.10194e-06
4.06757e-06
4.03704e-06
4.0098e-06
3.98537e-06
3.96335e-06
3.94338e-06
3.92517e-06
3.90842e-06
3.8928e-06
3.87754e-06
1.01018e-08
-1.01034e-08
2.29791e-08
-1.28842e-08
3.27571e-08
-9.77838e-09
3.7855e-08
-5.10422e-09
3.80303e-08
-1.74028e-10
3.37158e-08
4.30859e-09
2.57492e-08
7.96983e-09
1.49645e-08
1.078e-08
2.0865e-09
1.28845e-08
-1.24461e-08
1.45303e-08
-2.83435e-08
1.59102e-08
-4.54593e-08
1.71151e-08
-6.36773e-08
1.82291e-08
-8.29764e-08
1.92954e-08
-1.03295e-07
2.03333e-08
-1.24651e-07
2.13442e-08
-1.46968e-07
2.23268e-08
-1.70264e-07
2.32714e-08
-1.9442e-07
2.41703e-08
-2.19469e-07
2.50109e-08
-2.45229e-07
2.57884e-08
-2.71756e-07
2.64926e-08
-2.98836e-07
2.71281e-08
-3.26529e-07
2.77014e-08
-3.54647e-07
2.82288e-08
-3.83311e-07
2.87329e-08
-4.12399e-07
2.92435e-08
-4.4208e-07
2.97906e-08
-4.72316e-07
3.0403e-08
-5.03321e-07
3.10999e-08
-5.35097e-07
3.19229e-08
-5.67845e-07
3.29019e-08
-6.01825e-07
3.40978e-08
-6.37339e-07
3.58116e-08
-6.73325e-07
3.60302e-08
-7.06775e-07
3.36863e-08
-7.46574e-07
3.96952e-08
-7.8884e-07
4.21501e-08
-8.24589e-07
3.55133e-08
-8.65089e-07
4.01451e-08
-9.08165e-07
4.2884e-08
-9.53794e-07
4.53541e-08
-9.99585e-07
4.57134e-08
-1.04102e-06
4.13332e-08
-1.08178e-06
4.07508e-08
-1.12533e-06
4.3543e-08
-1.16926e-06
4.39316e-08
-1.21344e-06
4.41848e-08
-1.25774e-06
4.42952e-08
-1.30205e-06
4.43083e-08
-1.34628e-06
4.42257e-08
-1.39035e-06
4.40719e-08
-1.43422e-06
4.38656e-08
-1.47784e-06
4.36218e-08
-1.5212e-06
4.33496e-08
-1.56425e-06
4.30546e-08
-1.60699e-06
4.27397e-08
-1.6494e-06
4.24064e-08
-1.69146e-06
4.20541e-08
-1.73314e-06
4.16828e-08
-1.77444e-06
4.129e-08
-1.81532e-06
4.08752e-08
-1.85576e-06
4.04351e-08
-1.89573e-06
3.9969e-08
-1.93521e-06
3.94736e-08
-1.97416e-06
3.89479e-08
-2.01256e-06
3.8389e-08
-2.05036e-06
3.7796e-08
-2.08753e-06
3.71666e-08
-2.12404e-06
3.64996e-08
-2.15984e-06
3.57936e-08
-2.19489e-06
3.50476e-08
-2.22916e-06
3.42605e-08
-2.2626e-06
3.34316e-08
-2.29516e-06
3.25607e-08
-2.32681e-06
3.16468e-08
-2.35751e-06
3.06906e-08
-2.38721e-06
2.96912e-08
-2.41586e-06
2.86497e-08
-2.44343e-06
2.75654e-08
-2.46987e-06
2.64396e-08
-2.49514e-06
2.52719e-08
-2.5192e-06
2.40638e-08
-2.54202e-06
2.28149e-08
-2.56354e-06
2.15266e-08
-2.58374e-06
2.01986e-08
-2.60257e-06
1.88317e-08
-2.61999e-06
1.74251e-08
-2.63597e-06
1.59783e-08
-2.65046e-06
1.44895e-08
-2.66341e-06
1.29559e-08
-2.67478e-06
1.13725e-08
-2.68452e-06
9.73305e-09
-2.69255e-06
8.02938e-09
-2.6988e-06
6.25003e-09
-2.70317e-06
4.37841e-09
-2.70558e-06
2.4063e-09
-2.70597e-06
3.95389e-10
-2.70451e-06
-1.46465e-09
-2.70138e-06
-3.12581e-09
-2.69667e-06
-4.71408e-09
-2.69038e-06
-6.28383e-09
-2.68253e-06
-7.85235e-09
-2.67311e-06
-9.42381e-09
-2.66211e-06
-1.09987e-08
-2.64953e-06
-1.25757e-08
-2.63538e-06
-1.41533e-08
-2.61965e-06
-1.57296e-08
-2.60235e-06
-1.73027e-08
-2.58348e-06
-1.88708e-08
-2.56305e-06
-2.04317e-08
-2.54107e-06
-2.19836e-08
-2.51755e-06
-2.35244e-08
-2.4925e-06
-2.50523e-08
-2.46594e-06
-2.65652e-08
-2.43788e-06
-2.80611e-08
-2.40834e-06
-2.95382e-08
-2.37735e-06
-3.09945e-08
-2.34492e-06
-3.2428e-08
-2.31108e-06
-3.38368e-08
-2.27586e-06
-3.52191e-08
-2.23929e-06
-3.65728e-08
-2.2014e-06
-3.78962e-08
-2.16221e-06
-3.91873e-08
-2.12176e-06
-4.04444e-08
-2.0801e-06
-4.1666e-08
-2.03724e-06
-4.28508e-08
-1.99325e-06
-4.3998e-08
-1.94814e-06
-4.51074e-08
-1.90196e-06
-4.61776e-08
-1.85475e-06
-4.72078e-08
-1.80655e-06
-4.81968e-08
-1.75741e-06
-4.91373e-08
-1.70738e-06
-5.00318e-08
-1.65649e-06
-5.08874e-08
-1.60479e-06
-5.17006e-08
-1.55232e-06
-5.24652e-08
-1.49914e-06
-5.31809e-08
-1.44529e-06
-5.38486e-08
-1.39082e-06
-5.44684e-08
-1.33577e-06
-5.50405e-08
-1.28021e-06
-5.55649e-08
-1.22416e-06
-5.60421e-08
-1.16769e-06
-5.64722e-08
-1.11083e-06
-5.68558e-08
-1.05364e-06
-5.71935e-08
-9.96152e-07
-5.74862e-08
-9.38418e-07
-5.77345e-08
-8.80479e-07
-5.79398e-08
-8.22377e-07
-5.8103e-08
-7.64153e-07
-5.82257e-08
-7.05844e-07
-5.83093e-08
-6.4749e-07
-5.83556e-08
-5.89125e-07
-5.83664e-08
-5.30783e-07
-5.83436e-08
-4.72495e-07
-5.82891e-08
-4.14291e-07
-5.82049e-08
-3.562e-07
-5.80924e-08
-2.98249e-07
-5.79527e-08
-2.40463e-07
-5.77866e-08
-1.8287e-07
-5.75948e-08
-1.25491e-07
-5.73797e-08
-6.83506e-08
-5.71417e-08
-1.1541e-08
-5.68108e-08
4.49384e-08
-5.64805e-08
1.01108e-07
-5.61708e-08
1.5691e-07
-5.58023e-08
2.1235e-07
-5.54417e-08
2.67456e-07
-5.5106e-08
3.22238e-07
-5.47828e-08
3.7669e-07
-5.44532e-08
4.30781e-07
-5.40909e-08
4.84435e-07
-5.36542e-08
5.37505e-07
-5.30705e-08
5.89707e-07
-5.22032e-08
6.40472e-07
-5.07645e-08
6.88581e-07
-4.81095e-08
7.31056e-07
-4.24752e-08
7.60671e-07
-2.96147e-08
1.2804e-08
7.47867e-07
8.82711e-09
-1.89326e-08
1.2484e-08
-1.65456e-08
1.15301e-08
-8.82536e-09
7.39811e-09
-9.75055e-10
7.83796e-10
6.44027e-09
-8.0826e-09
1.31727e-08
-1.91632e-08
1.90512e-08
-3.24013e-08
2.40168e-08
-4.76543e-08
2.81398e-08
-6.47035e-08
3.15796e-08
-8.33097e-08
3.45209e-08
-1.03318e-07
3.71249e-08
-1.24597e-07
3.95132e-08
-1.47067e-07
4.17656e-08
-1.70656e-07
4.39282e-08
-1.95339e-07
4.6024e-08
-2.2107e-07
4.80622e-08
-2.47854e-07
5.00433e-08
-2.75643e-07
5.19644e-08
-3.04469e-07
5.38197e-08
-3.34277e-07
5.5607e-08
-3.65133e-07
5.73265e-08
-3.96969e-07
5.8989e-08
-4.29887e-07
6.06091e-08
-4.63824e-07
6.22175e-08
-4.98911e-07
6.38433e-08
-5.35114e-07
6.5528e-08
-5.72576e-07
6.73065e-08
-6.113e-07
6.92263e-08
-6.51408e-07
7.13009e-08
-6.9294e-07
7.3538e-08
-7.35754e-07
7.58837e-08
-7.79835e-07
7.82339e-08
-8.24265e-07
8.04342e-08
-8.70181e-07
8.19372e-08
-9.19354e-07
8.29131e-08
-9.64618e-07
8.48589e-08
-1.00843e-06
8.5837e-08
-1.05793e-06
8.48794e-08
-1.10333e-06
8.53746e-08
-1.14673e-06
8.61996e-08
-1.18847e-06
8.69967e-08
-1.2298e-06
8.70162e-08
-1.27431e-06
8.5812e-08
-1.31883e-06
8.52765e-08
-1.36074e-06
8.54551e-08
-1.40203e-06
8.52234e-08
-1.44269e-06
8.48419e-08
-1.48278e-06
8.43867e-08
-1.52236e-06
8.38826e-08
-1.56147e-06
8.33342e-08
-1.60014e-06
8.27448e-08
-1.6384e-06
8.21188e-08
-1.67624e-06
8.14607e-08
-1.71366e-06
8.07733e-08
-1.75066e-06
8.00578e-08
-1.78724e-06
7.93135e-08
-1.82337e-06
7.85393e-08
-1.85905e-06
7.77321e-08
-1.89426e-06
7.68894e-08
-1.92898e-06
7.60071e-08
-1.96319e-06
7.5082e-08
-1.99686e-06
7.41098e-08
-2.02999e-06
7.30872e-08
-2.06253e-06
7.20101e-08
-2.09446e-06
7.08754e-08
-2.12575e-06
6.96795e-08
-2.15638e-06
6.84197e-08
-2.18631e-06
6.70931e-08
-2.21551e-06
6.56976e-08
-2.24395e-06
6.4231e-08
-2.2716e-06
6.26917e-08
-2.29842e-06
6.10783e-08
-2.32439e-06
5.93897e-08
-2.34946e-06
5.76254e-08
-2.3736e-06
5.57847e-08
-2.39678e-06
5.38679e-08
-2.41897e-06
5.18749e-08
-2.44012e-06
4.98063e-08
-2.46022e-06
4.76625e-08
-2.47923e-06
4.54448e-08
-2.49711e-06
4.31537e-08
-2.51384e-06
4.07908e-08
-2.52938e-06
3.83571e-08
-2.54371e-06
3.58541e-08
-2.55679e-06
3.32828e-08
-2.5686e-06
3.06447e-08
-2.57912e-06
2.79406e-08
-2.58831e-06
2.51716e-08
-2.59616e-06
2.23386e-08
-2.60264e-06
1.94418e-08
-2.60775e-06
1.64822e-08
-2.61148e-06
1.34615e-08
-2.61383e-06
1.03831e-08
-2.61483e-06
7.25356e-09
-2.61454e-06
4.08745e-09
-2.61306e-06
9.19288e-10
-2.61046e-06
-2.2012e-09
-2.60664e-06
-5.27664e-09
-2.60142e-06
-8.3489e-09
-2.5947e-06
-1.14311e-08
-2.58646e-06
-1.45233e-08
-2.57669e-06
-1.76267e-08
-2.56537e-06
-2.07403e-08
-2.55251e-06
-2.38617e-08
-2.5381e-06
-2.6988e-08
-2.52214e-06
-3.01154e-08
-2.50463e-06
-3.32404e-08
-2.48557e-06
-3.6359e-08
-2.46498e-06
-3.94674e-08
-2.44285e-06
-4.25618e-08
-2.4192e-06
-4.56381e-08
-2.39403e-06
-4.86924e-08
-2.36736e-06
-5.17209e-08
-2.33921e-06
-5.47196e-08
-2.30959e-06
-5.76847e-08
-2.27851e-06
-6.06122e-08
-2.24601e-06
-6.34984e-08
-2.2121e-06
-6.63394e-08
-2.1768e-06
-6.91315e-08
-2.14015e-06
-7.18708e-08
-2.10217e-06
-7.45536e-08
-2.06289e-06
-7.71762e-08
-2.02234e-06
-7.97349e-08
-1.98056e-06
-8.22261e-08
-1.93758e-06
-8.46467e-08
-1.89344e-06
-8.69938e-08
-1.84817e-06
-8.92657e-08
-1.80181e-06
-9.1461e-08
-1.75441e-06
-9.35789e-08
-1.706e-06
-9.56174e-08
-1.65663e-06
-9.7572e-08
-1.60633e-06
-9.94341e-08
-1.55515e-06
-1.01205e-07
-1.50315e-06
-1.02895e-07
-1.45035e-06
-1.04499e-07
-1.3968e-06
-1.06008e-07
-1.34256e-06
-1.07421e-07
-1.28767e-06
-1.08738e-07
-1.23218e-06
-1.0996e-07
-1.17613e-06
-1.11087e-07
-1.11958e-06
-1.12119e-07
-1.06256e-06
-1.13056e-07
-1.00513e-06
-1.139e-07
-9.47335e-07
-1.14652e-07
-8.89217e-07
-1.15311e-07
-8.30821e-07
-1.15881e-07
-7.72193e-07
-1.16364e-07
-7.13373e-07
-1.1676e-07
-6.54405e-07
-1.17072e-07
-5.95327e-07
-1.17304e-07
-5.36178e-07
-1.17459e-07
-4.76995e-07
-1.17539e-07
-4.17813e-07
-1.17549e-07
-3.58666e-07
-1.17492e-07
-2.99584e-07
-1.17372e-07
-2.40596e-07
-1.17193e-07
-1.81729e-07
-1.16959e-07
-1.2301e-07
-1.16672e-07
-6.44613e-08
-1.16336e-07
-6.10811e-09
-1.15948e-07
5.20329e-08
-1.15521e-07
1.09948e-07
-1.15057e-07
1.6767e-07
-1.14533e-07
2.25144e-07
-1.13955e-07
2.82294e-07
-1.13321e-07
3.39148e-07
-1.12657e-07
3.95717e-07
-1.1201e-07
4.52001e-07
-1.1139e-07
5.07997e-07
-1.1078e-07
5.6369e-07
-1.10146e-07
6.19038e-07
-1.09439e-07
6.73962e-07
-1.08578e-07
7.28311e-07
-1.0742e-07
7.81809e-07
-1.05701e-07
8.33954e-07
-1.02909e-07
8.83739e-07
-9.78951e-08
9.29594e-07
-8.83299e-08
9.68059e-07
-6.80794e-08
-1.91999e-08
1.00006e-06
9.38349e-10
-1.98728e-08
-4.1674e-09
-1.14428e-08
-1.20048e-08
-9.8861e-10
-2.15753e-08
8.59396e-09
-3.25162e-08
1.73811e-08
-4.47446e-08
2.54e-08
-5.83124e-08
3.26194e-08
-7.33155e-08
3.90193e-08
-8.98118e-08
4.46372e-08
-1.07802e-07
4.95699e-08
-1.27228e-07
5.39488e-08
-1.48011e-07
5.79095e-08
-1.70065e-07
6.15697e-08
-1.93319e-07
6.50196e-08
-2.1771e-07
6.83224e-08
-2.43206e-07
7.15186e-08
-2.69773e-07
7.46329e-08
-2.97415e-07
7.76787e-08
-3.26111e-07
8.06643e-08
-3.55895e-07
8.35925e-08
-3.8675e-07
8.64683e-08
-4.18733e-07
8.92947e-08
-4.51817e-07
9.20822e-08
-4.86056e-07
9.48394e-08
-5.21403e-07
9.75839e-08
-5.57883e-07
1.00328e-07
-5.95416e-07
1.0309e-07
-6.33951e-07
1.05874e-07
-6.7337e-07
1.08678e-07
-7.13483e-07
1.11479e-07
-7.54144e-07
1.14233e-07
-7.95058e-07
1.16874e-07
-8.36096e-07
1.19294e-07
-8.7698e-07
1.21348e-07
-9.17891e-07
1.22818e-07
-9.58777e-07
1.23756e-07
-9.98615e-07
1.24625e-07
-1.03804e-06
1.25195e-07
-1.07837e-06
1.25152e-07
-1.11801e-06
1.24976e-07
-1.15664e-06
1.24812e-07
-1.19426e-06
1.24607e-07
-1.23135e-06
1.24121e-07
-1.26878e-06
1.23247e-07
-1.30598e-06
1.22485e-07
-1.34236e-06
1.21829e-07
-1.3782e-06
1.21072e-07
-1.41363e-06
1.20264e-07
-1.44867e-06
1.1943e-07
-1.48337e-06
1.18577e-07
-1.51774e-06
1.17703e-07
-1.5518e-06
1.16805e-07
-1.58556e-06
1.1588e-07
-1.61902e-06
1.14925e-07
-1.65219e-06
1.13937e-07
-1.68504e-06
1.12914e-07
-1.71758e-06
1.11851e-07
-1.74979e-06
1.10744e-07
-1.78164e-06
1.09589e-07
-1.81313e-06
1.08379e-07
-1.84424e-06
1.0711e-07
-1.87493e-06
1.05776e-07
-1.9052e-06
1.04372e-07
-1.935e-06
1.02892e-07
-1.96433e-06
1.01332e-07
-1.99314e-06
9.96867e-08
-2.02142e-06
9.79514e-08
-2.04912e-06
9.61222e-08
-2.07623e-06
9.41955e-08
-2.1027e-06
9.21681e-08
-2.12851e-06
9.00372e-08
-2.15362e-06
8.78007e-08
-2.178e-06
8.54564e-08
-2.20162e-06
8.30032e-08
-2.22444e-06
8.044e-08
-2.24642e-06
7.77664e-08
-2.26754e-06
7.49823e-08
-2.28776e-06
7.20879e-08
-2.30704e-06
6.9084e-08
-2.32535e-06
6.59717e-08
-2.34265e-06
6.27522e-08
-2.35893e-06
5.94272e-08
-2.37414e-06
5.59988e-08
-2.38825e-06
5.24688e-08
-2.40123e-06
4.88399e-08
-2.41306e-06
4.51145e-08
-2.42371e-06
4.12954e-08
-2.43316e-06
3.73854e-08
-2.44137e-06
3.33878e-08
-2.44834e-06
2.9306e-08
-2.45404e-06
2.51444e-08
-2.45847e-06
2.09078e-08
-2.46161e-06
1.66033e-08
-2.46346e-06
1.22395e-08
-2.46404e-06
7.82857e-09
-2.46334e-06
3.38661e-09
-2.46135e-06
-1.06536e-09
-2.45804e-06
-5.51509e-09
-2.45333e-06
-9.97926e-09
-2.4472e-06
-1.44786e-08
-2.43962e-06
-1.90126e-08
-2.43057e-06
-2.35754e-08
-2.42003e-06
-2.81616e-08
-2.40801e-06
-3.27662e-08
-2.39449e-06
-3.7384e-08
-2.37946e-06
-4.20097e-08
-2.36294e-06
-4.66376e-08
-2.34492e-06
-5.12622e-08
-2.3254e-06
-5.58777e-08
-2.30439e-06
-6.04783e-08
-2.2819e-06
-6.50583e-08
-2.25793e-06
-6.96118e-08
-2.23249e-06
-7.4133e-08
-2.20559e-06
-7.8616e-08
-2.17726e-06
-8.30551e-08
-2.1475e-06
-8.74446e-08
-2.11633e-06
-9.17786e-08
-2.08378e-06
-9.60514e-08
-2.04986e-06
-1.00257e-07
-2.0146e-06
-1.04391e-07
-1.97803e-06
-1.08447e-07
-1.94016e-06
-1.12419e-07
-1.90103e-06
-1.16303e-07
-1.86068e-06
-1.20092e-07
-1.81912e-06
-1.23781e-07
-1.7764e-06
-1.27365e-07
-1.73256e-06
-1.30841e-07
-1.68762e-06
-1.34204e-07
-1.64163e-06
-1.37453e-07
-1.59462e-06
-1.40586e-07
-1.54663e-06
-1.43602e-07
-1.49771e-06
-1.46492e-07
-1.4479e-06
-1.49249e-07
-1.39723e-06
-1.51872e-07
-1.34575e-06
-1.54369e-07
-1.29351e-06
-1.56738e-07
-1.24055e-06
-1.58967e-07
-1.18692e-06
-1.61055e-07
-1.13266e-06
-1.63001e-07
-1.07781e-06
-1.64805e-07
-1.02243e-06
-1.66468e-07
-9.66556e-07
-1.6799e-07
-9.10239e-07
-1.69372e-07
-8.53524e-07
-1.70615e-07
-7.96455e-07
-1.7172e-07
-7.39077e-07
-1.72689e-07
-6.81434e-07
-1.73525e-07
-6.23567e-07
-1.7423e-07
-5.65518e-07
-1.74808e-07
-5.07329e-07
-1.75262e-07
-4.49037e-07
-1.75596e-07
-3.9068e-07
-1.75815e-07
-3.32295e-07
-1.75925e-07
-2.73914e-07
-1.7593e-07
-2.1557e-07
-1.75836e-07
-1.57293e-07
-1.75649e-07
-9.91113e-08
-1.75376e-07
-4.10492e-08
-1.75022e-07
1.68699e-08
-1.74592e-07
7.46232e-08
-1.74089e-07
1.32194e-07
-1.73519e-07
1.89564e-07
-1.72892e-07
2.46722e-07
-1.72215e-07
3.03675e-07
-1.71487e-07
3.60418e-07
-1.70698e-07
4.1694e-07
-1.69843e-07
4.73235e-07
-1.68952e-07
5.29292e-07
-1.68067e-07
5.85099e-07
-1.67198e-07
6.40643e-07
-1.66324e-07
6.95902e-07
-1.65405e-07
7.50832e-07
-1.6437e-07
8.05355e-07
-1.63101e-07
8.59332e-07
-1.61397e-07
9.12524e-07
-1.58893e-07
9.64525e-07
-1.5491e-07
1.0147e-06
-1.48069e-07
1.06218e-06
-1.35808e-07
1.10643e-06
-1.12333e-07
-6.47745e-08
1.152e-06
-6.68489e-09
-1.31895e-08
-1.77194e-08
-4.10471e-10
-3.01468e-08
1.14383e-08
-4.34302e-08
2.18764e-08
-5.7458e-08
3.1409e-08
-7.22587e-08
4.02e-08
-8.79251e-08
4.82862e-08
-1.0458e-07
5.56732e-08
-1.22326e-07
6.2385e-08
-1.41237e-07
6.84807e-08
-1.61334e-07
7.40474e-08
-1.82609e-07
7.91848e-08
-2.05026e-07
8.39894e-08
-2.2855e-07
8.85436e-08
-2.53137e-07
9.29126e-08
-2.78763e-07
9.71436e-08
-3.05397e-07
1.0127e-07
-3.33033e-07
1.05312e-07
-3.61651e-07
1.09285e-07
-3.91261e-07
1.13196e-07
-4.2184e-07
1.1705e-07
-4.534e-07
1.20847e-07
-4.85901e-07
1.24585e-07
-5.19327e-07
1.28258e-07
-5.53601e-07
1.3186e-07
-5.88646e-07
1.35374e-07
-6.24337e-07
1.38782e-07
-6.60507e-07
1.42058e-07
-6.96996e-07
1.45169e-07
-7.33569e-07
1.48077e-07
-7.70079e-07
1.50742e-07
-8.06319e-07
1.53122e-07
-8.42203e-07
1.55161e-07
-8.77691e-07
1.56795e-07
-9.12867e-07
1.5795e-07
-9.47819e-07
1.58642e-07
-9.82326e-07
1.59087e-07
-1.01651e-06
1.5934e-07
-1.05061e-06
1.59245e-07
-1.08448e-06
1.58866e-07
-1.11797e-06
1.58323e-07
-1.15099e-06
1.57667e-07
-1.18369e-06
1.5685e-07
-1.21628e-06
1.55855e-07
-1.24863e-06
1.54852e-07
-1.28067e-06
1.53877e-07
-1.31248e-06
1.5288e-07
-1.34407e-06
1.51858e-07
-1.37546e-06
1.50817e-07
-1.40664e-06
1.49759e-07
-1.43762e-06
1.48682e-07
-1.4684e-06
1.4758e-07
-1.49897e-06
1.46449e-07
-1.52933e-06
1.45283e-07
-1.55946e-06
1.44076e-07
-1.58937e-06
1.42821e-07
-1.61903e-06
1.41514e-07
-1.64843e-06
1.40146e-07
-1.67756e-06
1.38711e-07
-1.70638e-06
1.37203e-07
-1.73489e-06
1.35613e-07
-1.76305e-06
1.33936e-07
-1.79084e-06
1.32163e-07
-1.81824e-06
1.30289e-07
-1.84521e-06
1.28307e-07
-1.87174e-06
1.26212e-07
-1.89779e-06
1.23997e-07
-1.92333e-06
1.21658e-07
-1.94832e-06
1.1919e-07
-1.97275e-06
1.16589e-07
-1.99656e-06
1.13852e-07
-2.01974e-06
1.10975e-07
-2.04224e-06
1.07957e-07
-2.06404e-06
1.04796e-07
-2.08509e-06
1.01491e-07
-2.10537e-06
9.80405e-08
-2.12484e-06
9.44453e-08
-2.14346e-06
9.07057e-08
-2.1612e-06
8.68226e-08
-2.17802e-06
8.27976e-08
-2.1939e-06
7.86326e-08
-2.20881e-06
7.43299e-08
-2.2227e-06
6.98923e-08
-2.23556e-06
6.53229e-08
-2.24734e-06
6.06252e-08
-2.25803e-06
5.58031e-08
-2.26759e-06
5.08608e-08
-2.27601e-06
4.58029e-08
-2.28325e-06
4.06345e-08
-2.28931e-06
3.53617e-08
-2.29415e-06
2.99904e-08
-2.29777e-06
2.45283e-08
-2.30016e-06
1.89842e-08
-2.30128e-06
1.33682e-08
-2.30115e-06
7.69152e-09
-2.29972e-06
1.96664e-09
-2.29699e-06
-3.79539e-09
-2.29292e-06
-9.592e-09
-2.28746e-06
-1.54328e-08
-2.28061e-06
-2.13257e-08
-2.27236e-06
-2.72673e-08
-2.26268e-06
-3.32501e-08
-2.25158e-06
-3.92664e-08
-2.23904e-06
-4.53086e-08
-2.22505e-06
-5.13693e-08
-2.20962e-06
-5.74409e-08
-2.19274e-06
-6.35161e-08
-2.17442e-06
-6.95872e-08
-2.15465e-06
-7.56468e-08
-2.13344e-06
-8.16872e-08