/*--------------------------------*- C++ -*----------------------------------*\
| =========                 |                                                 |
| \\      /  F ield         | OpenFOAM: The Open Source CFD Toolbox           |
|  \\    /   O peration     | Version:  5.x                                   |
|   \\  /    A nd           | Web:      www.OpenFOAM.org                      |
|    \\/     M anipulation  |                                                 |
\*---------------------------------------------------------------------------*/
FoamFile
{
    version     2.0;
    format      ascii;
    class       volVectorField;
    location    "1000";
    object      U;
}
// * * * * * * * * * * * * * * * * * * * * * * * * * * * * * * * * * * * * * //

dimensions      [0 1 -1 0 0 0 0];

internalField   nonuniform List<vector> 
12225
(
(9.85176 -0.900706 0)
(9.65339 -0.750062 0)
(9.43316 -0.433315 0)
(9.19286 -0.223164 0)
(8.96716 -0.106254 0)
(8.76911 -0.045394 0)
(8.59795 -0.014699 0)
(8.45296 0.000915286 0)
(8.32968 0.00857086 0)
(8.22597 0.0124842 0)
(8.13743 0.0142557 0)
(8.06129 0.0151231 0)
(7.99497 0.0155012 0)
(7.93657 0.0155348 0)
(7.8843 0.0158757 0)
(7.83927 0.0161571 0)
(7.78794 0.0190091 0)
(7.7809 0.00754752 0)
(10.0563 0.237269 0)
(10.1254 0.342014 0)
(10.1231 0.273665 0)
(10.0868 0.1947 0)
(10.0425 0.139989 0)
(9.99366 0.104554 0)
(9.93869 0.08148 0)
(9.87755 0.065924 0)
(9.81377 0.0550963 0)
(9.74906 0.0470813 0)
(9.68542 0.0409969 0)
(9.62378 0.0362527 0)
(9.56484 0.0324178 0)
(9.50909 0.0293905 0)
(9.45612 0.0266097 0)
(9.40745 0.0251407 0)
(9.35931 0.0215035 0)
(9.32286 0.0294986 0)
(10.0031 0.0593808 0)
(10.0294 0.0556489 0)
(10.0556 0.0312133 0)
(10.0707 0.030308 0)
(10.0782 0.0390154 0)
(10.0796 0.0457704 0)
(10.0746 0.0491656 0)
(10.0636 0.0504901 0)
(10.0483 0.0506153 0)
(10.0298 0.0500389 0)
(10.0091 0.0490689 0)
(9.98668 0.0479293 0)
(9.96336 0.0467336 0)
(9.93958 0.0455873 0)
(9.91558 0.0443934 0)
(9.89217 0.0436959 0)
(9.8691 0.0423219 0)
(9.84734 0.0425491 0)
(9.99735 0.0106192 0)
(10.0097 0.0259866 0)
(10.0341 0.0372093 0)
(10.0523 0.0490886 0)
(10.0647 0.0569942 0)
(10.0741 0.0598027 0)
(10.0806 0.0598601 0)
(10.084 0.0589863 0)
(10.0849 0.0578098 0)
(10.0839 0.0565107 0)
(10.0814 0.0551466 0)
(10.0776 0.0538179 0)
(10.0728 0.0525188 0)
(10.0673 0.0513169 0)
(10.0612 0.0501039 0)
(10.055 0.0491887 0)
(10.0486 0.0479025 0)
(10.0421 0.0468573 0)
(9.9993 0.00694632 0)
(10.0085 0.031887 0)
(10.0269 0.0448236 0)
(10.0414 0.0509151 0)
(10.0524 0.054448 0)
(10.0626 0.0559316 0)
(10.0715 0.0561348 0)
(10.0786 0.0558117 0)
(10.0841 0.0552467 0)
(10.0884 0.0545267 0)
(10.0917 0.0536955 0)
(10.0941 0.0528333 0)
(10.0958 0.051953 0)
(10.097 0.0511009 0)
(10.0978 0.050219 0)
(10.0984 0.0494378 0)
(10.0988 0.0484226 0)
(10.0991 0.0473314 0)
(10.0004 0.00915342 0)
(10.0081 0.0311592 0)
(10.0222 0.0412302 0)
(10.0344 0.0456021 0)
(10.0444 0.0491385 0)
(10.054 0.0515048 0)
(10.063 0.0525499 0)
(10.0708 0.0528179 0)
(10.0775 0.0526919 0)
(10.0833 0.052323 0)
(10.0884 0.0517855 0)
(10.0929 0.051156 0)
(10.0969 0.0504663 0)
(10.1006 0.0497478 0)
(10.1038 0.0489746 0)
(10.1069 0.0481886 0)
(10.1099 0.0472314 0)
(10.1127 0.0460754 0)
(10.0005 0.00882478 0)
(10.0068 0.0264621 0)
(10.0183 0.0359912 0)
(10.0293 0.0410724 0)
(10.0386 0.0450831 0)
(10.0475 0.0478055 0)
(10.056 0.0491381 0)
(10.0637 0.0496277 0)
(10.0705 0.0496942 0)
(10.0767 0.0494992 0)
(10.0824 0.049117 0)
(10.0876 0.0486125 0)
(10.0924 0.0480235 0)
(10.0969 0.0473715 0)
(10.1012 0.0466459 0)
(10.1052 0.0458499 0)
(10.1091 0.0449018 0)
(10.1129 0.0437422 0)
(10.0004 0.00778615 0)
(10.0057 0.0229006 0)
(10.0156 0.0324494 0)
(10.0256 0.0379169 0)
(10.0344 0.0418688 0)
(10.0428 0.0445548 0)
(10.0509 0.0459909 0)
(10.0583 0.046624 0)
(10.065 0.0468239 0)
(10.0712 0.0467445 0)
(10.077 0.0464599 0)
(10.0823 0.0460315 0)
(10.0874 0.0454994 0)
(10.0922 0.044882 0)
(10.0967 0.0441758 0)
(10.1011 0.0433717 0)
(10.1053 0.0424215 0)
(10.1093 0.0412809 0)
(10.0004 0.00692707 0)
(10.005 0.0203335 0)
(10.0135 0.0295217 0)
(10.0227 0.0350181 0)
(10.031 0.0388694 0)
(10.0389 0.0415387 0)
(10.0466 0.043076 0)
(10.0538 0.0438322 0)
(10.0604 0.0441353 0)
(10.0665 0.0441405 0)
(10.0722 0.0439255 0)
(10.0776 0.0435503 0)
(10.0827 0.0430556 0)
(10.0876 0.0424598 0)
(10.0922 0.0417637 0)
(10.0967 0.0409569 0)
(10.101 0.0400085 0)
(10.1051 0.0388898 0)
(10.0004 0.00612665 0)
(10.0043 0.0178942 0)
(10.0115 0.0264294 0)
(10.0198 0.0318164 0)
(10.0276 0.0355674 0)
(10.0351 0.0382083 0)
(10.0423 0.0398222 0)
(10.0492 0.0406801 0)
(10.0556 0.0410697 0)
(10.0616 0.0411464 0)
(10.0673 0.0409904 0)
(10.0726 0.0406598 0)
(10.0777 0.0401946 0)
(10.0825 0.0396155 0)
(10.0872 0.0389259 0)
(10.0916 0.0381196 0)
(10.0959 0.0371773 0)
(10.0999 0.0360884 0)
(10.0004 0.00533578 0)
(10.0036 0.0154885 0)
(10.0097 0.0232229 0)
(10.0171 0.0283948 0)
(10.0243 0.0320081 0)
(10.0313 0.0345714 0)
(10.0381 0.0362123 0)
(10.0446 0.037141 0)
(10.0508 0.0375978 0)
(10.0566 0.0377323 0)
(10.0622 0.0376254 0)
(10.0674 0.0373324 0)
(10.0724 0.036893 0)
(10.0772 0.0363289 0)
(10.0817 0.035648 0)
(10.0861 0.0348491 0)
(10.0903 0.0339233 0)
(10.0942 0.0328731 0)
(10.0003 0.00454567 0)
(10.003 0.0131461 0)
(10.0082 0.019976 0)
(10.0146 0.0247935 0)
(10.0211 0.028197 0)
(10.0276 0.0306245 0)
(10.034 0.0322361 0)
(10.0402 0.0331967 0)
(10.0461 0.0336969 0)
(10.0517 0.0338726 0)
(10.057 0.0338032 0)
(10.0621 0.0335416 0)
(10.067 0.0331257 0)
(10.0716 0.0325787 0)
(10.0761 0.0319128 0)
(10.0803 0.0311321 0)
(10.0844 0.0302356 0)
(10.0882 0.0292365 0)
(10.0003 0.00376868 0)
(10.0025 0.0108882 0)
(10.0068 0.0167293 0)
(10.0123 0.0210421 0)
(10.0183 0.0241454 0)
(10.0242 0.026374 0)
(10.0301 0.0278934 0)
(10.0359 0.028836 0)
(10.0415 0.0293467 0)
(10.0469 0.0295417 0)
(10.052 0.0294954 0)
(10.057 0.0292577 0)
(10.0617 0.0288638 0)
(10.0662 0.0283382 0)
(10.0704 0.0276957 0)
(10.0745 0.026946 0)
(10.0784 0.0260938 0)
(10.0821 0.0251587 0)
(10.0002 0.00301307 0)
(10.0021 0.00871139 0)
(10.0057 0.0135019 0)
(10.0104 0.0171736 0)
(10.0157 0.0198736 0)
(10.0211 0.0218293 0)
(10.0266 0.0231856 0)
(10.032 0.0240492 0)
(10.0373 0.0245275 0)
(10.0424 0.0247131 0)
(10.0473 0.0246713 0)
(10.052 0.0244471 0)
(10.0565 0.0240729 0)
(10.0609 0.0235727 0)
(10.065 0.0229631 0)
(10.0689 0.0222573 0)
(10.0726 0.0214636 0)
(10.0762 0.0206049 0)
(10.0002 0.00227927 0)
(10.0017 0.00659909 0)
(10.0048 0.010295 0)
(10.0089 0.0132095 0)
(10.0135 0.0153965 0)
(10.0185 0.0169933 0)
(10.0235 0.018109 0)
(10.0285 0.0188256 0)
(10.0335 0.0192197 0)
(10.0383 0.0193597 0)
(10.043 0.0192985 0)
(10.0475 0.0190738 0)
(10.0518 0.0187142 0)
(10.056 0.0182411 0)
(10.0599 0.0176719 0)
(10.0637 0.0170204 0)
(10.0672 0.0162968 0)
(10.0706 0.015524 0)
(10.0002 0.00155986 0)
(10.0015 0.00452087 0)
(10.0041 0.00708173 0)
(10.0077 0.00913877 0)
(10.0118 0.0107031 0)
(10.0163 0.0118471 0)
(10.0209 0.0126403 0)
(10.0256 0.0131381 0)
(10.0303 0.0133906 0)
(10.0348 0.0134435 0)
(10.0393 0.0133343 0)
(10.0436 0.0130918 0)
(10.0477 0.012738 0)
(10.0517 0.0122911 0)
(10.0554 0.0117659 0)
(10.059 0.0111753 0)
(10.0624 0.0105289 0)
(10.0657 0.00984775 0)
(10.0001 0.000837727 0)
(10.0013 0.00242612 0)
(10.0036 0.00380083 0)
(10.0068 0.00490807 0)
(10.0106 0.00574452 0)
(10.0147 0.00634024 0)
(10.019 0.00672763 0)
(10.0234 0.00693453 0)
(10.0278 0.00698661 0)
(10.0322 0.0069081 0)
(10.0364 0.00671978 0)
(10.0405 0.00643882 0)
(10.0445 0.0060792 0)
(10.0482 0.00565314 0)
(10.0519 0.00517111 0)
(10.0553 0.00464302 0)
(10.0586 0.00407597 0)
(10.0617 0.0034874 0)
(10.0001 0.000128115 0)
(10.0012 0.000363547 0)
(10.0034 0.000548441 0)
(10.0064 0.000675038 0)
(10.01 0.000740186 0)
(10.014 0.000744011 0)
(10.0181 0.000685315 0)
(10.0223 0.000564821 0)
(10.0266 0.000385706 0)
(10.0308 0.000151726 0)
(10.0349 -0.000133139 0)
(10.0388 -0.000464778 0)
(10.0426 -0.000838454 0)
(10.0463 -0.00124937 0)
(10.0498 -0.00169236 0)
(10.0532 -0.00216223 0)
(10.0563 -0.00265495 0)
(10.0593 -0.00315779 0)
(10.0001 -0.000527851 0)
(10.0012 -0.00154775 0)
(10.0034 -0.00247598 0)
(10.0065 -0.00327001 0)
(10.0101 -0.00392517 0)
(10.0141 -0.00447044 0)
(10.0182 -0.00494139 0)
(10.0224 -0.00536286 0)
(10.0266 -0.0057527 0)
(10.0307 -0.00612637 0)
(10.0348 -0.00649634 0)
(10.0387 -0.00687063 0)
(10.0424 -0.00725383 0)
(10.046 -0.00764813 0)
(10.0495 -0.00805415 0)
(10.0527 -0.00847094 0)
(10.0559 -0.00889791 0)
(10.0588 -0.00932616 0)
(10.0001 -0.0011318 0)
(10.0013 -0.00331818 0)
(10.0036 -0.00528305 0)
(10.0069 -0.00691113 0)
(10.0107 -0.00819417 0)
(10.0148 -0.00920693 0)
(10.0191 -0.0100219 0)
(10.0234 -0.0106851 0)
(10.0276 -0.0112352 0)
(10.0318 -0.0117089 0)
(10.0358 -0.0121347 0)
(10.0397 -0.0125312 0)
(10.0435 -0.0129107 0)
(10.047 -0.0132813 0)
(10.0504 -0.0136485 0)
(10.0537 -0.0140148 0)
(10.0568 -0.0143824 0)
(10.0597 -0.0147454 0)
(10.0001 -0.0017038 0)
(10.0014 -0.00503357 0)
(10.004 -0.00801969 0)
(10.0076 -0.0104084 0)
(10.0118 -0.0122173 0)
(10.0161 -0.0136137 0)
(10.0206 -0.0147076 0)
(10.025 -0.0155547 0)
(10.0294 -0.0162135 0)
(10.0337 -0.016745 0)
(10.0377 -0.0171939 0)
(10.0417 -0.0175885 0)
(10.0454 -0.0179471 0)
(10.049 -0.0182838 0)
(10.0524 -0.0186071 0)
(10.0556 -0.0189228 0)
(10.0587 -0.0192343 0)
(10.0616 -0.0195383 0)
(10.0001 -0.00223677 0)
(10.0015 -0.00673398 0)
(10.0044 -0.0107868 0)
(10.0086 -0.0138779 0)
(10.0132 -0.0161079 0)
(10.0179 -0.0177937 0)
(10.0226 -0.0190846 0)
(10.0272 -0.0200463 0)
(10.0318 -0.0207632 0)
(10.0361 -0.0213172 0)
(10.0403 -0.0217631 0)
(10.0443 -0.0221351 0)
(10.0481 -0.022458 0)
(10.0517 -0.0227504 0)
(10.0551 -0.0230241 0)
(10.0583 -0.0232865 0)
(10.0614 -0.0235421 0)
(10.0642 -0.0237891 0)
(10.0001 -0.0027135 0)
(10.0015 -0.00845627 0)
(10.0049 -0.0135833 0)
(10.0098 -0.0172918 0)
(10.0149 -0.0199119 0)
(10.02 -0.0218604 0)
(10.025 -0.0232678 0)
(10.0299 -0.0242463 0)
(10.0346 -0.0249467 0)
(10.0391 -0.0254767 0)
(10.0433 -0.0258908 0)
(10.0473 -0.0262227 0)
(10.0512 -0.0265005 0)
(10.0548 -0.026745 0)
(10.0582 -0.0269694 0)
(10.0614 -0.0271813 0)
(10.0645 -0.0273856 0)
(10.0674 -0.0275813 0)
(10 -0.00308604 0)
(10.0014 -0.0105322 0)
(10.0055 -0.0165586 0)
(10.0111 -0.0204477 0)
(10.0168 -0.0233534 0)
(10.0222 -0.025648 0)
(10.0276 -0.027222 0)
(10.0328 -0.0282074 0)
(10.0377 -0.0288565 0)
(10.0423 -0.0293217 0)
(10.0467 -0.0296651 0)
(10.0508 -0.0299247 0)
(10.0546 -0.0301324 0)
(10.0583 -0.0303108 0)
(10.0617 -0.0304725 0)
(10.065 -0.0306247 0)
(10.068 -0.0307709 0)
(10.0709 -0.030909 0)
(9.9998 -0.00276717 0)
(10.0009 -0.0134081 0)
(10.006 -0.0207656 0)
(10.0125 -0.0241951 0)
(10.0185 -0.0267233 0)
(10.0244 -0.0290012 0)
(10.0304 -0.0306499 0)
(10.036 -0.031698 0)
(10.0413 -0.0323834 0)
(10.0461 -0.0328501 0)
(10.0506 -0.0331621 0)
(10.0548 -0.033368 0)
(10.0587 -0.03351 0)
(10.0623 -0.0336158 0)
(10.0656 -0.0337022 0)
(10.0687 -0.0337781 0)
(10.0716 -0.0338485 0)
(10.0742 -0.0339116 0)
(9.99853 0.000145215 0)
(9.9983 -0.0138624 0)
(10.0058 -0.0247793 0)
(10.0142 -0.0296773 0)
(10.021 -0.03212 0)
(10.0276 -0.0335953 0)
(10.0343 -0.034449 0)
(10.0405 -0.0349783 0)
(10.0461 -0.0353613 0)
(10.051 -0.0356329 0)
(10.0555 -0.0358003 0)
(10.0595 -0.0358895 0)
(10.063 -0.0359302 0)
(10.0661 -0.0359423 0)
(10.0689 -0.0359395 0)
(10.0713 -0.0359303 0)
(10.0734 -0.0359184 0)
(10.0753 -0.0358987 0)
(9.99503 0.00203645 0)
(9.99236 -0.00672218 0)
(10.004 -0.0182523 0)
(10.0171 -0.0293106 0)
(10.0269 -0.0369695 0)
(10.0352 -0.0405495 0)
(10.0424 -0.0415992 0)
(10.0485 -0.0416375 0)
(10.0534 -0.0413399 0)
(10.0574 -0.0408966 0)
(10.0605 -0.0403861 0)
(10.0628 -0.0398652 0)
(10.0645 -0.0393696 0)
(10.0655 -0.0389108 0)
(10.0661 -0.0384966 0)
(10.0663 -0.038127 0)
(10.0662 -0.0378001 0)
(10.0657 -0.0374829 0)
(9.99445 -0.0269578 0)
(9.99758 -0.0202554 0)
(10.0114 -0.00242755 0)
(10.0263 -0.00196602 0)
(10.0388 -0.0109755 0)
(10.0484 -0.0195648 0)
(10.0548 -0.0254912 0)
(10.0579 -0.0294607 0)
(10.0584 -0.0320987 0)
(10.057 -0.0337436 0)
(10.0541 -0.0346728 0)
(10.05 -0.0351314 0)
(10.045 -0.0352928 0)
(10.0393 -0.0352692 0)
(10.0331 -0.0351442 0)
(10.0265 -0.0349736 0)
(10.0198 -0.0348161 0)
(10.0128 -0.0346166 0)
(10.0234 -0.168305 0)
(10.0674 -0.267758 0)
(10.0785 -0.232371 0)
(10.0721 -0.176478 0)
(10.0639 -0.133725 0)
(10.0548 -0.103834 0)
(10.0414 -0.0828506 0)
(10.0234 -0.0681976 0)
(10.0024 -0.0579444 0)
(9.97951 -0.0505532 0)
(9.95564 -0.0450306 0)
(9.93131 -0.040778 0)
(9.907 -0.0374298 0)
(9.883 -0.0347317 0)
(9.85954 -0.0325282 0)
(9.83676 -0.0307357 0)
(9.81492 -0.0293206 0)
(9.79404 -0.028556 0)
(9.94528 0.650372 0)
(9.89253 0.58156 0)
(9.80525 0.367773 0)
(9.68415 0.213313 0)
(9.55851 0.119103 0)
(9.44257 0.0645653 0)
(9.33878 0.0334066 0)
(9.24635 0.0154491 0)
(9.16428 0.00494885 0)
(9.09163 -0.00128529 0)
(9.02701 -0.00500728 0)
(8.96926 -0.00725685 0)
(8.91728 -0.00861489 0)
(8.87031 -0.00945449 0)
(8.82756 -0.00996643 0)
(8.78849 -0.0103232 0)
(8.75226 -0.0106505 0)
(8.71855 -0.0113075 0)
(0.00422181 -0.0098513 0)
(0.0151692 -0.016489 0)
(0.0252086 -0.0149786 0)
(0.0319996 -0.00964972 0)
(0.0346161 -0.00312318 0)
(0.0326401 0.00301348 0)
(0.0270275 0.0078977 -3.94254e-19)
(0.0185793 0.0113587 3.71367e-19)
(0.00796692 0.0136258 0)
(-0.0042873 0.0150536 3.10817e-19)
(-0.0178418 0.0160073 0)
(-0.0325214 0.016759 0)
(-0.0482298 0.0174629 0)
(-0.0649175 0.0181774 -1.70696e-19)
(-0.0825517 0.0189155 0)
(-0.101118 0.0196632 0)
(-0.120591 0.020403 1.23956e-19)
(-0.14095 0.0211077 0)
(-0.162149 0.0217544 0)
(-0.184154 0.0223183 0)
(-0.206898 0.0227878 -9.13887e-20)
(-0.230329 0.0231547 0)
(-0.254372 0.0234363 -8.13032e-20)
(-0.278961 0.0236646 0)
(-0.304035 0.0238929 0)
(-0.329565 0.0241925 -7.03783e-20)
(-0.355547 0.0246508 0)
(-0.382013 0.0253733 6.50876e-20)
(-0.409031 0.0264923 0)
(-0.436693 0.02818 -6.11154e-20)
(-0.465071 0.0306959 0)
(-0.494293 0.0343423 0)
(-0.524725 0.039392 0)
(-0.556232 0.0467713 0)
(-0.588609 0.0496018 0)
(-0.621553 0.0444079 5.38863e-20)
(-0.652375 0.063568 0)
(-0.685714 0.0612931 -1.42862e-19)
(-0.726037 0.0226868 0)
(-0.760756 0.0249777 1.47222e-19)
(-0.799553 0.029055 0)
(-0.840855 0.0374935 0)
(-0.881189 0.0396419 -1.29752e-19)
(-0.922044 0.0259816 0)
(-0.959703 0.024798 -1.21847e-19)
(-0.996609 0.0338471 1.18558e-19)
(-1.03761 0.0346514 0)
(-1.0783 0.0348349 1.11988e-19)
(-1.11916 0.0347487 1.08903e-19)
(-1.16008 0.0346109 0)
(-1.20102 0.0343903 0)
(-1.24191 0.0341139 0)
(-1.28269 0.0337937 0)
(-1.32332 0.0334461 0)
(-1.36378 0.0330789 -9.37731e-20)
(-1.40405 0.0326984 0)
(-1.4441 0.0323072 8.97887e-20)
(-1.48391 0.0319072 0)
(-1.52349 0.0314981 0)
(-1.56279 0.0310803 -8.45373e-20)
(-1.60181 0.0306521 0)
(-1.64053 0.0302132 8.14328e-20)
(-1.67893 0.0297614 0)
(-1.71698 0.0292962 0)
(-1.75465 0.0288155 0)
(-1.79193 0.0283188 -7.59675e-20)
(-1.82877 0.027804 0)
(-1.86516 0.027271 0)
(-1.90105 0.0267181 -7.23782e-20)
(-1.93641 0.026145 0)
(-1.97121 0.0255508 -7.01737e-20)
(-2.00541 0.0249353 0)
(-2.03896 0.0242981 0)
(-2.07184 0.0236391 0)
(-2.104 0.0229583 6.61104e-20)
(-2.1354 0.0222557 0)
(-2.166 0.0215319 0)
(-2.19576 0.0207869 6.32855e-20)
(-2.22464 0.0200214 6.23742e-20)
(-2.25259 0.0192356 0)
(-2.27959 0.0184306 6.05847e-20)
(-2.30557 0.0176062 0)
(-2.33052 0.0167637 1.17653e-19)
(-2.35437 0.0159029 0)
(-2.37711 0.0150246 1.1417e-19)
(-2.39868 0.0141282 0)
(-2.41905 0.0132136 -1.10695e-19)
(-2.43818 0.0122794 0)
(-2.45603 0.0113237 0)
(-2.47256 0.0103429 0)
(-2.48772 0.0093323 1.03665e-19)
(-2.50147 0.008285 0)
(-2.51375 0.00719312 -1.0007e-19)
(-2.52451 0.00604808 0)
(-2.53367 0.00484339 9.64008e-20)
(-2.54116 0.00358401 9.45363e-20)
(-2.5469 0.00230849 9.26527e-20)
(-2.55077 0.00110649 0)
(-2.55268 6.70696e-05 0)
(-2.55307 -0.000842826 0)
(-2.55196 -0.00170896 0)
(-2.54938 -0.00255944 0)
(-2.54532 -0.00340304 0)
(-2.53979 -0.00424174 0)
(-2.53278 -0.00507595 0)
(-2.52427 -0.00590516 -7.36499e-20)
(-2.51426 -0.00672884 -7.12674e-20)
(-2.50276 -0.00754624 0)
(-2.48974 -0.00835667 0)
(-2.47522 -0.0091594 0)
(-2.4592 -0.00995374 -6.10851e-20)
(-2.44167 -0.010739 0)
(-2.42264 -0.0115145 0)
(-2.40211 -0.0122795 0)
(-2.3801 -0.0130335 0)
(-2.35662 -0.0137758 4.66934e-20)
(-2.33167 -0.0145058 0)
(-2.30527 -0.0152229 0)
(-2.27743 -0.0159266 -3.70343e-20)
(-2.24818 -0.0166162 3.36248e-20)
(-2.21752 -0.0172913 0)
(-2.18549 -0.0179512 2.65001e-20)
(-2.1521 -0.0185955 0)
(-2.11738 -0.0192238 -1.89417e-20)
(-2.08136 -0.0198356 0)
(-2.04405 -0.0204308 0)
(-2.0055 -0.0210093 0)
(-1.96574 -0.0215712 0)
(-1.92478 -0.0221171 0)
(-1.88267 -0.0226452 -1.33938e-20)
(-1.83944 -0.0231556 -2.29163e-20)
(-1.79513 -0.0236483 0)
(-1.74977 -0.0241223 0)
(-1.7034 -0.0245822 0)
(-1.65605 -0.0250265 6.42796e-20)
(-1.60777 -0.0254525 0)
(-1.5586 -0.0258601 0)
(-1.50857 -0.0262504 0)
(-1.45773 -0.0266237 1.11699e-19)
(-1.40612 -0.0269806 -1.24657e-19)
(-1.35379 -0.0273214 0)
(-1.30077 -0.0276467 0)
(-1.24711 -0.027957 -1.66597e-19)
(-1.19285 -0.0282528 -1.81704e-19)
(-1.13804 -0.0285348 0)
(-1.08272 -0.0288038 0)
(-1.02692 -0.0290605 2.30939e-19)
(-0.970689 -0.0293058 -2.48806e-19)
(-0.914069 -0.0295406 0)
(-0.857096 -0.029766 0)
(-0.799808 -0.0299831 -3.07545e-19)
(-0.742242 -0.0301931 0)
(-0.684433 -0.0303974 0)
(-0.626415 -0.0305974 -3.75485e-19)
(-0.568219 -0.0307947 0)
(-0.509876 -0.0309907 -4.271e-19)
(-0.451414 -0.0311873 0)
(-0.392859 -0.0313856 0)
(-0.334237 -0.0315863 0)
(-0.275573 -0.0317901 5.50151e-19)
(-0.21689 -0.0320003 0)
(-0.158212 -0.0322357 0)
(-0.0995658 -0.0324978 0)
(-0.0409981 -0.0327165 0)
(0.0174368 -0.0324856 0)
(0.0757044 -0.0317127 0)
(0.133863 -0.0308392 7.00593e-19)
(0.191886 -0.0300146 6.84303e-19)
(0.249774 -0.0292456 0)
(0.307543 -0.0285211 0)
(0.365203 -0.0278285 0)
(0.422736 -0.0271531 -6.29344e-19)
(0.480093 -0.0264749 0)
(0.53716 -0.0257625 1.21322e-18)
(0.593757 -0.0249586 -1.19271e-18)
(0.649315 -0.0239544 -1.174e-18)
(0.70355 -0.0224879 1.1579e-18)
(0.751878 -0.0199356 -1.14627e-18)
(0.799807 -0.0149068 1.14525e-18)
(0.797547 0.00170105 0)
(0.00454097 -0.0308572 0)
(0.0106146 -0.032701 0)
(0.0112022 -0.0214857 4.84205e-19)
(0.00885916 -0.00883555 0)
(0.00411528 0.00337171 -3.25845e-19)
(-0.00268172 0.0142516 -2.9518e-19)
(-0.0115309 0.0233227 -1.35451e-19)
(-0.0223554 0.0305221 -1.25303e-19)
(-0.0350495 0.0360884 0)
(-0.0494405 0.0404053 -1.07027e-19)
(-0.0653193 0.0438694 0)
(-0.0825127 0.0467998 0)
(-0.100897 0.0494101 1.68645e-19)
(-0.120385 0.0518208 7.83469e-20)
(-0.140914 0.0540917 -1.45977e-19)
(-0.162443 0.0562442 -1.36683e-19)
(-0.184944 0.0582839 -6.43284e-20)
(-0.208402 0.060203 0)
(-0.232799 0.0619931 0)
(-0.258131 0.0636407 0)
(-0.284389 0.0651415 -5.24152e-20)
(-0.31158 0.0664899 0)
(-0.339703 0.0676998 1.45478e-19)
(-0.368776 0.0687899 0)
(-0.398818 0.0697986 0)
(-0.429862 0.0707685 4.40509e-20)
(-0.461955 0.071759 0)
(-0.495147 0.0728267 -4.18291e-20)
(-0.529508 0.074033 -8.17079e-20)
(-0.565092 0.0753843 4.02672e-20)
(-0.60198 0.0768616 0)
(-0.640171 0.0783524 0)
(-0.679592 0.0797129 0)
(-0.719531 0.0806929 -7.8915e-20)
(-0.760473 0.0807333 -7.90954e-20)
(-0.803424 0.0800097 -3.96899e-20)
(-0.846039 0.0801641 0)
(-0.888487 0.0826231 8.26823e-20)
(-0.930682 0.0849608 0)
(-0.97379 0.0870494 -7.88104e-20)
(-1.01412 0.0884086 0)
(-1.05247 0.0889535 0)
(-1.09094 0.0892405 7.01102e-20)
(-1.13067 0.0892052 0)
(-1.1713 0.0892319 1.97652e-19)
(-1.21142 0.0893807 -6.43519e-20)
(-1.24982 0.0891567 0)
(-1.28766 0.0886345 -6.15651e-20)
(-1.32503 0.0879033 -6.02941e-20)
(-1.36199 0.0870244 0)
(-1.39856 0.086044 0)
(-1.43479 0.0849906 0)
(-1.47068 0.0838873 0)
(-1.50626 0.0827489 0)
(-1.54152 0.0815855 5.38667e-20)
(-1.57645 0.0804029 1.05636e-19)
(-1.61105 0.0792034 -5.20816e-20)
(-1.64532 0.077988 0)
(-1.67923 0.0767553 1.00592e-19)
(-1.71279 0.075504 -4.93812e-20)
(-1.74596 0.0742313 0)
(-1.77873 0.0729351 -4.81665e-20)
(-1.81108 0.071612 0)
(-1.843 0.0702599 0)
(-1.87445 0.0688756 -9.1951e-20)
(-1.90542 0.0674573 4.54514e-20)
(-1.93587 0.0660025 -8.93853e-20)
(-1.96578 0.0645097 8.8147e-20)
(-1.99513 0.0629771 4.35854e-20)
(-2.02387 0.061404 0)
(-2.05199 0.0597892 4.24012e-20)
(-2.07945 0.0581324 0)
(-2.10623 0.0564335 0)
(-2.13227 0.0546925 0)
(-2.15757 0.05291 3.99353e-20)
(-2.18208 0.0510866 0)
(-2.20577 0.0492234 7.78797e-20)
(-2.22861 0.0473214 -1.15279e-19)
(-2.25057 0.0453822 -3.79395e-20)
(-2.2716 0.0434069 0)
(-2.2917 0.0413978 -3.68515e-20)
(-2.31081 0.0393559 0)
(-2.32891 0.0372837 -7.15192e-20)
(-2.34597 0.0351824 0)
(-2.36196 0.0330544 -6.93145e-20)
(-2.37685 0.0309007 1.3621e-19)
(-2.39061 0.0287234 6.70765e-20)
(-2.40321 0.0265233 0)
(-2.41462 0.0243014 0)
(-2.42483 0.0220581 0)
(-2.4338 0.0197929 -6.24549e-20)
(-2.44153 0.0175045 0)
(-2.44799 0.0151912 6.00518e-20)
(-2.45318 0.0128504 0)
(-2.45712 0.0104779 -1.72759e-19)
(-2.45984 0.00807077 -5.6313e-20)
(-2.46139 0.00564502 -5.5032e-20)
(-2.46187 0.00326264 0)
(-2.46139 0.00101106 0)
(-2.45964 -0.00111573 0)
(-2.4565 -0.00318397 0)
(-2.45195 -0.0052189 0)
(-2.44596 -0.00722989 -9.36442e-20)
(-2.43852 -0.00921917 -9.07211e-20)
(-2.42961 -0.0111864 0)
(-2.41924 -0.01313 4.22086e-20)
(-2.40739 -0.0150483 4.06534e-20)
(-2.39405 -0.0169391 0)
(-2.37924 -0.0188005 7.53012e-20)
(-2.36293 -0.0206306 0)
(-2.34515 -0.0224274 -3.4588e-20)
(-2.32588 -0.0241891 0)
(-2.30513 -0.0259138 0)
(-2.28291 -0.0275998 5.84575e-20)
(-2.25922 -0.0292454 0)
(-2.23408 -0.0308491 -2.53671e-20)
(-2.2075 -0.0324091 0)
(-2.17948 -0.0339242 0)
(-2.15006 -0.0353929 -2.03788e-20)
(-2.11923 -0.0368139 -1.77956e-20)
(-2.08702 -0.0381857 0)
(-2.05345 -0.0395073 1.45432e-20)
(-2.01855 -0.0407775 0)
(-1.98233 -0.0419952 -1.04973e-20)
(-1.94482 -0.0431593 -1.60705e-20)
(-1.90606 -0.0442693 0)
(-1.86606 -0.0453248 0)
(-1.82486 -0.0463259 0)
(-1.7825 -0.0472732 0)
(-1.739 -0.0481675 6.53954e-21)
(-1.69439 -0.0490086 3.14422e-20)
(-1.64871 -0.0497954 0)
(-1.60201 -0.0505222 0)
(-1.55431 -0.0511917 0)
(-1.50564 -0.0518134 -2.9853e-20)
(-1.45606 -0.0523849 0)
(-1.4056 -0.0529013 0)
(-1.3543 -0.0533627 8.70348e-20)
(-1.3022 -0.0537714 4.74844e-20)
(-1.24935 -0.0541285 5.46006e-20)
(-1.19578 -0.0544354 0)
(-1.14153 -0.0546933 0)
(-1.08666 -0.0549036 7.01175e-20)
(-1.03121 -0.0550676 -7.32425e-20)
(-0.975205 -0.055187 0)
(-0.918699 -0.0552634 0)
(-0.86173 -0.0552985 -9.15596e-20)
(-0.80434 -0.0552941 2.88946e-19)
(-0.746566 -0.0552524 0)
(-0.688449 -0.0551754 0)
(-0.630025 -0.0550652 1.13837e-19)
(-0.57133 -0.0549243 0)
(-0.512398 -0.0547552 2.48317e-19)
(-0.453265 -0.0545603 -1.28831e-19)
(-0.393959 -0.0543424 0)
(-0.334511 -0.0541038 1.42816e-19)
(-0.27495 -0.053847 2.9527e-19)
(-0.215299 -0.0535741 0)
(-0.155584 -0.0532864 0)
(-0.0958265 -0.0529843 -1.66871e-19)
(-0.0360512 -0.0526687 0)
(0.0237234 -0.0523357 3.52197e-19)
(0.0834864 -0.0519847 0)
(0.143256 -0.0516082 0)
(0.203021 -0.0510888 0)
(0.262701 -0.0503859 0)
(0.322284 -0.0496337 -1.85768e-19)
(0.381794 -0.0489046 -1.87396e-19)
(0.441239 -0.0482089 0)
(0.500622 -0.047538 0)
(0.559937 -0.0468767 0)
(0.619158 -0.046203 1.92944e-19)
(0.678231 -0.0454828 0)
(0.73704 -0.0446593 -3.90389e-19)
(0.795399 -0.0436244 3.92481e-19)
(0.852835 -0.0421752 3.94581e-19)
(0.908969 -0.0398082 3.9397e-19)
(0.961006 -0.0355877 3.99911e-19)
(1.01199 -0.0264238 4.02682e-19)
(1.04037 -0.00398382 0)
(0.000535207 -0.0398131 0)
(-0.00122971 -0.0288484 0)
(-0.00689826 -0.0111922 -3.28842e-19)
(-0.0144897 0.0053749 -2.37707e-19)
(-0.0235747 0.0204505 1.95642e-19)
(-0.033848 0.0339309 1.72499e-19)
(-0.0452779 0.0457133 4.45254e-23)
(-0.0579445 0.0557678 0)
(-0.0719284 0.0642103 0)
(-0.0872595 0.0712838 0)
(-0.103909 0.0772882 0)
(-0.121815 0.0825088 0)
(-0.140902 0.087178 -3.30697e-19)
(-0.161101 0.0914624 0)
(-0.182354 0.0954701 9.94071e-20)
(-0.204622 0.0992651 9.47117e-20)
(-0.227877 0.102883 0)
(-0.252109 0.10634 0)
(-0.277311 0.109645 0)
(-0.303492 0.1128 0)
(-0.330662 0.115813 7.74251e-20)
(-0.358842 0.118691 0)
(-0.388048 0.121457 -7.27362e-20)
(-0.418297 0.124138 0)
(-0.449596 0.126777 0)
(-0.481937 0.129416 0)
(-0.515298 0.132108 -1.31258e-19)
(-0.549625 0.134884 0)
(-0.584848 0.137777 6.30041e-20)
(-0.620826 0.140769 -1.23482e-19)
(-0.657401 0.143819 0)
(-0.694381 0.146814 0)
(-0.73152 0.149563 0)
(-0.768589 0.151802 5.78341e-20)
(-0.805743 0.153103 5.65989e-20)
(-0.842969 0.153706 0)
(-0.879921 0.154937 0)
(-0.916437 0.155584 -1.05973e-19)
(-0.952959 0.154834 -1.04271e-19)
(-0.989413 0.154116 1.01997e-19)
(-1.02514 0.153184 0)
(-1.05997 0.151965 0)
(-1.09422 0.149959 0)
(-1.12856 0.147015 0)
(-1.16308 0.144667 -9.06423e-20)
(-1.19724 0.142921 -8.86084e-20)
(-1.23065 0.141087 8.67503e-20)
(-1.26367 0.139234 0)
(-1.29638 0.137372 0)
(-1.32882 0.135497 0)
(-1.36102 0.133604 0)
(-1.39297 0.131692 -7.88121e-20)
(-1.42471 0.129762 0)
(-1.45622 0.127816 0)
(-1.48752 0.125855 -7.48335e-20)
(-1.51859 0.123879 -7.376e-20)
(-1.54943 0.121885 0)
(-1.58002 0.11987 1.42561e-19)
(-1.61035 0.117831 -7.03298e-20)
(-1.64042 0.115764 6.9258e-20)
(-1.67019 0.113663 0)
(-1.69965 0.111526 0)
(-1.72878 0.109346 0)
(-1.75755 0.107121 0)
(-1.78595 0.104847 6.43205e-20)
(-1.81395 0.10252 1.26507e-19)
(-1.84152 0.100137 6.25018e-20)
(-1.86863 0.0976969 -6.16183e-20)
(-1.89526 0.0951967 0)
(-1.92138 0.0926353 1.19515e-19)
(-1.94695 0.0900118 1.17835e-19)
(-1.97195 0.0873258 1.16177e-19)
(-1.99634 0.0845775 -1.14537e-19)
(-2.02009 0.0817672 0)
(-2.04317 0.078896 -1.6707e-19)
(-2.06555 0.075965 0)
(-2.0872 0.0729762 5.39459e-20)
(-2.10807 0.0699313 5.33622e-20)
(-2.12814 0.0668327 0)
(-2.14738 0.0636829 0)
(-2.16575 0.0604846 1.01764e-19)
(-2.18321 0.0572407 0)
(-2.19975 0.0539542 9.85783e-20)
(-2.21533 0.0506282 0)
(-2.22991 0.0472659 -9.53616e-20)
(-2.24347 0.0438704 -1.87579e-19)
(-2.25598 0.0404448 0)
(-2.26742 0.0369923 0)
(-2.27775 0.033516 0)
(-2.28696 0.0300194 -8.70887e-20)
(-2.29503 0.0265061 0)
(-2.30194 0.0229806 -8.36554e-20)
(-2.30767 0.0194491 0)
(-2.31223 0.0159206 0)
(-2.3156 0.0124078 1.56665e-19)
(-2.3178 0.00892829 0)
(-2.31881 0.00550437 7.46878e-20)
(-2.31862 0.00214805 0)
(-2.31718 -0.00116355 7.08341e-20)
(-2.31441 -0.00445375 0)
(-2.31029 -0.00771917 0)
(-2.30479 -0.010955 0)
(-2.2979 -0.0141588 1.88285e-19)
(-2.28961 -0.0173281 6.05638e-20)
(-2.2799 -0.0204598 0)
(-2.26876 -0.0235509 0)
(-2.25619 -0.026598 0)
(-2.24218 -0.0295978 0)
(-2.22674 -0.0325469 -4.96797e-20)
(-2.20985 -0.0354423 9.53885e-20)
(-2.19152 -0.0382806 4.51221e-20)
(-2.17175 -0.041059 -8.62226e-20)
(-2.15054 -0.0437744 -8.15523e-20)
(-2.1279 -0.0464241 -3.80685e-20)
(-2.10385 -0.0490052 0)
(-2.07837 -0.0515152 -6.71981e-20)
(-2.0515 -0.0539516 0)
(-2.02323 -0.0563121 5.73493e-20)
(-1.99359 -0.0585944 2.57517e-20)
(-1.96258 -0.0607964 0)
(-1.93024 -0.062916 -4.21761e-20)
(-1.89657 -0.0649514 -1.80455e-20)
(-1.8616 -0.0669006 0)
(-1.82536 -0.0687621 -1.37652e-20)
(-1.78786 -0.0705342 3.13742e-20)
(-1.74913 -0.0722158 0)
(-1.7092 -0.073806 0)
(-1.66811 -0.0753049 0)
(-1.62588 -0.0767132 0)
(-1.58254 -0.0780322 -5.88077e-21)
(-1.53813 -0.0792614 -1.25577e-20)
(-1.49267 -0.0803994 0)
(-1.44621 -0.0814425 0)
(-1.39878 -0.0823916 0)
(-1.35042 -0.0832557 0)
(-1.30116 -0.0840339 0)
(-1.25105 -0.0847218 0)
(-1.20012 -0.0853197 -5.22437e-20)
(-1.14841 -0.0858296 -1.26793e-21)
(-1.09596 -0.0862537 0)
(-1.04282 -0.0865938 0)
(-0.989024 -0.0868521 -7.40415e-20)
(-0.934616 -0.0870307 0)
(-0.879635 -0.0871318 8.69489e-20)
(-0.824123 -0.0871581 9.14351e-20)
(-0.768121 -0.0871121 0)
(-0.711667 -0.0869965 0)
(-0.654803 -0.0868144 -1.10192e-19)
(-0.597565 -0.0865689 -2.29307e-19)
(-0.539992 -0.0862631 0)
(-0.482119 -0.0859005 0)
(-0.423982 -0.0854848 0)
(-0.365615 -0.0850197 -1.39127e-19)
(-0.307049 -0.0845089 1.44877e-19)
(-0.248315 -0.0839564 0)
(-0.189442 -0.0833658 3.09951e-19)
(-0.130455 -0.0827402 1.59323e-19)
(-0.0713786 -0.0820828 -3.32682e-19)
(-0.0122359 -0.0813975 0)
(0.0469531 -0.0806876 0)
(0.106171 -0.0799546 -3.57937e-19)
(0.165403 -0.0791955 -1.83318e-19)
(0.224634 -0.0784126 0)
(0.283864 -0.0776109 0)
(0.343104 -0.0767871 0)
(0.402345 -0.0759403 0)
(0.461576 -0.0750886 -3.92572e-19)
(0.520794 -0.074255 0)
(0.579992 -0.0734433 0)
(0.639158 -0.0726439 0)
(0.698279 -0.0718375 0)
(0.757326 -0.0709937 0)
(0.816242 -0.070063 0)
(0.874918 -0.068961 -4.26408e-19)
(0.933184 -0.0675331 0)
(0.990652 -0.0654896 0)
(1.04704 -0.0622184 -8.79847e-19)
(1.10049 -0.0565384 4.43811e-19)
(1.15394 -0.0456416 -4.5253e-19)
(1.19519 -0.0224766 4.61604e-19)
(-0.00418294 -0.0330487 0)
(-0.0115518 -0.0128957 9.29565e-19)
(-0.0211508 0.00818014 0)
(-0.0322567 0.0268757 1.80682e-19)
(-0.0443717 0.0437056 0)
(-0.0571673 0.058881 0)
(-0.0706671 0.0724539 -1.19307e-19)
(-0.0849917 0.0844527 0)
(-0.100256 0.0949636 0)
(-0.116543 0.10415 0)
(-0.133896 0.112227 0)
(-0.152318 0.119421 0)
(-0.171791 0.125939 3.44447e-19)
(-0.192281 0.131947 1.64648e-19)
(-0.213754 0.137569 -1.57688e-19)
(-0.236181 0.142892 0)
(-0.25954 0.147974 0)
(-0.283816 0.15285 0)
(-0.308999 0.157546 0)
(-0.335087 0.162077 0)
(-0.362078 0.166454 1.27028e-19)
(-0.38997 0.170688 1.23401e-19)
(-0.418752 0.17479 -1.20073e-19)
(-0.448404 0.178766 1.1699e-19)
(-0.478889 0.182627 0)
(-0.510141 0.186372 0)
(-0.54207 0.189998 1.08742e-19)
(-0.574546 0.193477 0)
(-0.607422 0.196773 0)
(-0.640514 0.199825 1.01236e-19)
(-0.673646 0.202562 9.88046e-20)
(-0.706649 0.204897 9.64658e-20)
(-0.73937 0.206713 0)
(-0.771749 0.20788 0)
(-0.803898 0.208247 -8.97855e-20)
(-0.835911 0.207902 0)
(-0.867707 0.20735 0)
(-0.899241 0.206588 8.34184e-20)
(-0.930554 0.205235 -8.16595e-20)
(-0.961675 0.203541 7.9862e-20)
(-0.992544 0.201659 0)
(-1.02306 0.1996 0)
(-1.05329 0.197198 1.498e-19)
(-1.08339 0.1944 0)
(-1.11344 0.191645 1.43343e-19)
(-1.14331 0.189046 2.10543e-19)
(-1.17293 0.186456 -2.06276e-19)
(-1.20238 0.183879 1.34799e-19)
(-1.23169 0.181322 0)
(-1.26085 0.178781 0)
(-1.28987 0.176249 1.27436e-19)
(-1.31875 0.17372 6.26492e-20)
(-1.34749 0.171186 0)
(-1.3761 0.168643 0)
(-1.40455 0.166086 5.95453e-20)
(-1.43284 0.163509 1.17041e-19)
(-1.46097 0.160906 0)
(-1.48891 0.158272 -1.13507e-19)
(-1.51666 0.155601 1.11628e-19)
(-1.54419 0.152886 -1.09931e-19)
(-1.57149 0.150122 0)
(-1.59853 0.147303 0)
(-1.6253 0.144422 0)