/*--------------------------------*- C++ -*----------------------------------*\
| =========                 |                                                 |
| \\      /  F ield         | OpenFOAM: The Open Source CFD Toolbox           |
|  \\    /   O peration     | Version:  5.x                                   |
|   \\  /    A nd           | Web:      www.OpenFOAM.org                      |
|    \\/     M anipulation  |                                                 |
\*---------------------------------------------------------------------------*/
FoamFile
{
    version     2.0;
    format      ascii;
    class       volVectorField;
    location    "0";
    object      C;
}
// * * * * * * * * * * * * * * * * * * * * * * * * * * * * * * * * * * * * * //

dimensions      [0 1 0 0 0 0 0];

internalField   nonuniform List<vector> 
12225
(
(-0.0198086 0.000156695 3.39265e-20)
(-0.0182574 0.000156695 0)
(-0.0167681 0.000156695 1.84045e-20)
(-0.0153384 0.000156695 0)
(-0.0139658 0.000156695 0)
(-0.012648 0.000156695 0)
(-0.0113829 0.000156695 0)
(-0.0101683 0.000156695 0)
(-0.00900222 0.000156695 0)
(-0.00788276 0.000156695 0)
(-0.00680802 0.000156695 0)
(-0.00577621 0.000156695 0)
(-0.00478564 0.000156695 0)
(-0.00383464 0.000156695 0)
(-0.00292163 0.000156695 0)
(-0.0020451 0.000156695 0)
(-0.0012036 0.000156695 0)
(-0.000395709 0.000156695 0)
(-0.0198086 0.000486212 0)
(-0.0182574 0.000486212 0)
(-0.0167681 0.000486212 1.81929e-20)
(-0.0153384 0.000486212 0)
(-0.0139658 0.000486212 0)
(-0.012648 0.000486212 -2.97932e-20)
(-0.0113829 0.000486212 0)
(-0.0101683 0.000486212 0)
(-0.00900222 0.000486212 1.21618e-20)
(-0.00788276 0.000486212 0)
(-0.00680802 0.000486212 -3.619e-20)
(-0.00577621 0.000486212 0)
(-0.00478564 0.000486212 0)
(-0.00383464 0.000486212 0)
(-0.00292163 0.000486212 0)
(-0.0020451 0.000486212 0)
(-0.0012036 0.000486212 0)
(-0.000395709 0.000486212 0)
(-0.0198086 0.000849643 0)
(-0.0182574 0.000849643 0)
(-0.0167681 0.000849643 0)
(-0.0153384 0.000849643 0)
(-0.0139658 0.000849643 5.22575e-20)
(-0.012648 0.000849643 0)
(-0.0113829 0.000849643 0)
(-0.0101683 0.000849643 -9.27559e-21)
(-0.00900222 0.000849643 9.6616e-21)
(-0.00788276 0.000849643 4.17606e-20)
(-0.00680802 0.000849643 3.29533e-20)
(-0.00577621 0.000849643 0)
(-0.00478564 0.000849643 0)
(-0.00383464 0.000849643 0)
(-0.00292163 0.000849643 0)
(-0.0020451 0.000849643 0)
(-0.0012036 0.000849643 -2.82815e-20)
(-0.000395709 0.000849643 0)
(-0.0198086 0.00125048 -2.60402e-20)
(-0.0182574 0.00125048 0)
(-0.0167681 0.00125048 0)
(-0.0153384 0.00125048 0)
(-0.0139658 0.00125048 0)
(-0.012648 0.00125048 0)
(-0.0113829 0.00125048 0)
(-0.0101683 0.00125048 0)
(-0.00900222 0.00125048 3.65458e-20)
(-0.00788276 0.00125048 -2.88795e-20)
(-0.00680802 0.00125048 4.90272e-20)
(-0.00577621 0.00125048 0)
(-0.00478564 0.00125048 1.03118e-20)
(-0.00383464 0.00125048 3.37286e-20)
(-0.00292163 0.00125048 0)
(-0.0020451 0.00125048 0)
(-0.0012036 0.00125048 -1.36443e-20)
(-0.000395709 0.00125048 0)
(-0.0198086 0.00169257 0)
(-0.0182574 0.00169257 0)
(-0.0167681 0.00169257 0)
(-0.0153384 0.00169257 0)
(-0.0139658 0.00169257 0)
(-0.012648 0.00169257 0)
(-0.0113829 0.00169257 0)
(-0.0101683 0.00169257 0)
(-0.00900222 0.00169257 3.32759e-20)
(-0.00788276 0.00169257 0)
(-0.00680802 0.00169257 0)
(-0.00577621 0.00169257 0)
(-0.00478564 0.00169257 0)
(-0.00383464 0.00169257 0)
(-0.00292163 0.00169257 0)
(-0.0020451 0.00169257 0)
(-0.0012036 0.00169257 0)
(-0.000395709 0.00169257 0)
(-0.0198086 0.00218017 1.0394e-20)
(-0.0182574 0.00218017 0)
(-0.0167681 0.00218017 0)
(-0.0153384 0.00218017 -2.49986e-20)
(-0.0139658 0.00218017 0)
(-0.012648 0.00218017 0)
(-0.0113829 0.00218017 -2.80554e-20)
(-0.0101683 0.00218017 0)
(-0.00900222 0.00218017 0)
(-0.00788276 0.00218017 4.6512e-20)
(-0.00680802 0.00218017 -1.71322e-20)
(-0.00577621 0.00218017 0)
(-0.00478564 0.00218017 0)
(-0.00383464 0.00218017 -1.91654e-20)
(-0.00292163 0.00218017 0)
(-0.0020451 0.00218017 -3.02459e-20)
(-0.0012036 0.00218017 0)
(-0.000395709 0.00218017 0)
(-0.0198086 0.00271795 0)
(-0.0182574 0.00271795 -3.09545e-20)
(-0.0167681 0.00271795 0)
(-0.0153384 0.00271795 -3.34565e-20)
(-0.0139658 0.00271795 0)
(-0.012648 0.00271795 0)
(-0.0113829 0.00271795 0)
(-0.0101683 0.00271795 -2.65796e-20)
(-0.00900222 0.00271795 0)
(-0.00788276 0.00271795 1.51079e-20)
(-0.00680802 0.00271795 0)
(-0.00577621 0.00271795 0)
(-0.00478564 0.00271795 3.22497e-20)
(-0.00383464 0.00271795 3.35291e-20)
(-0.00292163 0.00271795 0)
(-0.0020451 0.00271795 0)
(-0.0012036 0.00271795 0)
(-0.000395709 0.00271795 2.97779e-20)
(-0.0198086 0.00322031 2.48835e-20)
(-0.0182574 0.00322031 0)
(-0.0167681 0.00322031 0)
(-0.0153384 0.00322031 0)
(-0.0139658 0.00322031 0)
(-0.012648 0.00322031 -3.10932e-20)
(-0.0113829 0.00322031 7.70466e-21)
(-0.0101683 0.00322031 2.40759e-20)
(-0.00900222 0.00322031 0)
(-0.00788276 0.00322031 0)
(-0.00680802 0.00322031 0)
(-0.00577621 0.00322031 0)
(-0.00478564 0.00322031 0)
(-0.00383464 0.00322031 -1.02496e-20)
(-0.00292163 0.00322031 0)
(-0.0020451 0.00322031 -2.37467e-20)
(-0.0012036 0.00322031 3.62555e-20)
(-0.000395709 0.00322031 0)
(-0.0198086 0.0036976 0)
(-0.0182574 0.0036976 0)
(-0.0167681 0.0036976 -3.51708e-20)
(-0.0153384 0.0036976 0)
(-0.0139658 0.0036976 0)
(-0.012648 0.0036976 0)
(-0.0113829 0.0036976 0)
(-0.0101683 0.0036976 0)
(-0.00900222 0.0036976 3.73355e-20)
(-0.00788276 0.0036976 0)
(-0.00680802 0.0036976 0)
(-0.00577621 0.0036976 0)
(-0.00478564 0.0036976 0)
(-0.00383464 0.0036976 5.57301e-20)
(-0.00292163 0.0036976 2.8962e-20)
(-0.0020451 0.0036976 0)
(-0.0012036 0.0036976 3.12948e-20)
(-0.000395709 0.0036976 0)
(-0.0198086 0.00425439 0)
(-0.0182574 0.00425439 9.23536e-21)
(-0.0167681 0.00425439 2.07452e-20)
(-0.0153384 0.00425439 0)
(-0.0139658 0.00425439 -3.28169e-20)
(-0.012648 0.00425439 0)
(-0.0113829 0.00425439 0)
(-0.0101683 0.00425439 0)
(-0.00900222 0.00425439 0)
(-0.00788276 0.00425439 0)
(-0.00680802 0.00425439 -4.14952e-20)
(-0.00577621 0.00425439 0)
(-0.00478564 0.00425439 0)
(-0.00383464 0.00425439 2.41021e-20)
(-0.00292163 0.00425439 0)
(-0.0020451 0.00425439 0)
(-0.0012036 0.00425439 0)
(-0.000395709 0.00425439 0)
(-0.0198086 0.00490389 3.11555e-20)
(-0.0182574 0.00490389 0)
(-0.0167681 0.00490389 0)
(-0.0153384 0.00490389 0)
(-0.0139658 0.00490389 0)
(-0.012648 0.00490389 -9.31942e-21)
(-0.0113829 0.00490389 0)
(-0.0101683 0.00490389 0)
(-0.00900222 0.00490389 0)
(-0.00788276 0.00490389 -3.44168e-20)
(-0.00680802 0.00490389 0)
(-0.00577621 0.00490389 0)
(-0.00478564 0.00490389 0)
(-0.00383464 0.00490389 0)
(-0.00292163 0.00490389 0)
(-0.0020451 0.00490389 0)
(-0.0012036 0.00490389 0)
(-0.000395709 0.00490389 0)
(-0.0198086 0.00566155 -5.36307e-20)
(-0.0182574 0.00566155 0)
(-0.0167681 0.00566155 0)
(-0.0153384 0.00566155 0)
(-0.0139658 0.00566155 0)
(-0.012648 0.00566155 0)
(-0.0113829 0.00566155 2.49645e-20)
(-0.0101683 0.00566155 0)
(-0.00900222 0.00566155 0)
(-0.00788276 0.00566155 3.91228e-20)
(-0.00680802 0.00566155 -4.06883e-20)
(-0.00577621 0.00566155 -3.21156e-20)
(-0.00478564 0.00566155 0)
(-0.00383464 0.00566155 1.10702e-20)
(-0.00292163 0.00566155 0)
(-0.0020451 0.00566155 1.20107e-20)
(-0.0012036 0.00566155 0)
(-0.000395709 0.00566155 0)
(-0.0198086 0.00654539 0)
(-0.0182574 0.00654539 0)
(-0.0167681 0.00654539 0)
(-0.0153384 0.00654539 0)
(-0.0139658 0.00654539 0)
(-0.012648 0.00654539 0)
(-0.0113829 0.00654539 3.004e-20)
(-0.0101683 0.00654539 -3.12275e-20)
(-0.00900222 0.00654539 0)
(-0.00788276 0.00654539 0)
(-0.00680802 0.00654539 0)
(-0.00577621 0.00654539 0)
(-0.00478564 0.00654539 0)
(-0.00383464 0.00654539 2.04855e-20)
(-0.00292163 0.00654539 0)
(-0.0020451 0.00654539 0)
(-0.0012036 0.00654539 0)
(-0.000395709 0.00654539 1.11709e-20)
(-0.0198086 0.00757641 0)
(-0.0182574 0.00757641 0)
(-0.0167681 0.00757641 0)
(-0.0153384 0.00757641 0)
(-0.0139658 0.00757641 0)
(-0.012648 0.00757641 -3.67311e-20)
(-0.0113829 0.00757641 0)
(-0.0101683 0.00757641 -1.42452e-20)
(-0.00900222 0.00757641 0)
(-0.00788276 0.00757641 0)
(-0.00680802 0.00757641 3.02997e-20)
(-0.00577621 0.00757641 0)
(-0.00478564 0.00757641 0)
(-0.00383464 0.00757641 0)
(-0.00292163 0.00757641 0)
(-0.0020451 0.00757641 0)
(-0.0012036 0.00757641 0)
(-0.000395709 0.00757641 0)
(-0.0198086 0.00877913 -8.20916e-21)
(-0.0182574 0.00877913 0)
(-0.0167681 0.00877913 -4.75449e-20)
(-0.0153384 0.00877913 0)
(-0.0139658 0.00877913 0)
(-0.012648 0.00877913 0)
(-0.0113829 0.00877913 0)
(-0.0101683 0.00877913 0)
(-0.00900222 0.00877913 0)
(-0.00788276 0.00877913 0)
(-0.00680802 0.00877913 0)
(-0.00577621 0.00877913 0)
(-0.00478564 0.00877913 0)
(-0.00383464 0.00877913 -2.09213e-20)
(-0.00292163 0.00877913 0)
(-0.0020451 0.00877913 0)
(-0.0012036 0.00877913 0)
(-0.000395709 0.00877913 0)
(-0.0198086 0.0101821 0)
(-0.0182574 0.0101821 0)
(-0.0167681 0.0101821 3.20465e-20)
(-0.0153384 0.0101821 0)
(-0.0139658 0.0101821 0)
(-0.012648 0.0101821 0)
(-0.0113829 0.0101821 0)
(-0.0101683 0.0101821 0)
(-0.00900222 0.0101821 4.05112e-20)
(-0.00788276 0.0101821 0)
(-0.00680802 0.0101821 0)
(-0.00577621 0.0101821 0)
(-0.00478564 0.0101821 -3.59421e-20)
(-0.00383464 0.0101821 0)
(-0.00292163 0.0101821 0)
(-0.0020451 0.0101821 0)
(-0.0012036 0.0101821 0)
(-0.000395709 0.0101821 0)
(-0.0198086 0.0118188 0)
(-0.0182574 0.0118188 0)
(-0.0167681 0.0118188 0)
(-0.0153384 0.0118188 0)
(-0.0139658 0.0118188 0)
(-0.012648 0.0118188 0)
(-0.0113829 0.0118188 1.69152e-20)
(-0.0101683 0.0118188 0)
(-0.00900222 0.0118188 0)
(-0.00788276 0.0118188 0)
(-0.00680802 0.0118188 0)
(-0.00577621 0.0118188 0)
(-0.00478564 0.0118188 3.10261e-20)
(-0.00383464 0.0118188 0)
(-0.00292163 0.0118188 0)
(-0.0020451 0.0118188 0)
(-0.0012036 0.0118188 -2.46723e-20)
(-0.000395709 0.0118188 0)
(-0.0198086 0.0135913 -3.65391e-20)
(-0.0182574 0.0135913 0)
(-0.0167681 0.0135913 5.32748e-20)
(-0.0153384 0.0135913 0)
(-0.0139658 0.0135913 0)
(-0.012648 0.0135913 -1.61321e-20)
(-0.0113829 0.0135913 0)
(-0.0101683 0.0135913 -1.73748e-20)
(-0.00900222 0.0135913 1.65293e-20)
(-0.00788276 0.0135913 0)
(-0.00680802 0.0135913 0)
(-0.00577621 0.0135913 0)
(-0.00478564 0.0135913 -9.72873e-21)
(-0.00383464 0.0135913 0)
(-0.00292163 0.0135913 0)
(-0.0020451 0.0135913 0)
(-0.0012036 0.0135913 0)
(-0.000395709 0.0135913 0)
(-0.0198086 0.0152767 0)
(-0.0182574 0.0152767 -2.93994e-20)
(-0.0167681 0.0152767 1.6033e-20)
(-0.0153384 0.0152767 0)
(-0.0139658 0.0152767 -1.57615e-20)
(-0.012648 0.0152767 1.79232e-20)
(-0.0113829 0.0152767 0)
(-0.0101683 0.0152767 0)
(-0.00900222 0.0152767 -3.86129e-20)
(-0.00788276 0.0152767 0)
(-0.00680802 0.0152767 0)
(-0.00577621 0.0152767 -7.63985e-20)
(-0.00478564 0.0152767 0)
(-0.00383464 0.0152767 0)
(-0.00292163 0.0152767 2.52017e-20)
(-0.0020451 0.0152767 0)
(-0.0012036 0.0152767 0)
(-0.000395709 0.0152767 1.33895e-20)
(-0.0198086 0.0167782 3.08114e-20)
(-0.0182574 0.0167782 -1.71606e-20)
(-0.0167681 0.0167782 -1.7812e-20)
(-0.0153384 0.0167782 0)
(-0.0139658 0.0167782 3.68891e-20)
(-0.012648 0.0167782 3.83616e-20)
(-0.0113829 0.0167782 0)
(-0.0101683 0.0167782 2.14994e-20)
(-0.00900222 0.0167782 0)
(-0.00788276 0.0167782 0)
(-0.00680802 0.0167782 0)
(-0.00577621 0.0167782 0)
(-0.00478564 0.0167782 -1.22574e-20)
(-0.00383464 0.0167782 -2.70409e-20)
(-0.00292163 0.0167782 0)
(-0.0020451 0.0167782 0)
(-0.0012036 0.0167782 0)
(-0.000395709 0.0167782 0)
(-0.0198086 0.0181159 -3.44925e-20)
(-0.0182574 0.0181159 0)
(-0.0167681 0.0181159 0)
(-0.0153384 0.0181159 0)
(-0.0139658 0.0181159 0)
(-0.012648 0.0181159 0)
(-0.0113829 0.0181159 0)
(-0.0101683 0.0181159 0)
(-0.00900222 0.0181159 0)
(-0.00788276 0.0181159 0)
(-0.00680802 0.0181159 -2.6868e-20)
(-0.00577621 0.0181159 0)
(-0.00478564 0.0181159 0)
(-0.00383464 0.0181159 0)
(-0.00292163 0.0181159 0)
(-0.0020451 0.0181159 0)
(-0.0012036 0.0181159 0)
(-0.000395709 0.0181159 0)
(-0.0198086 0.0193076 0)
(-0.0182574 0.0193076 0)
(-0.0167681 0.0193076 0)
(-0.0153384 0.0193076 0)
(-0.0139658 0.0193076 2.37959e-20)
(-0.012648 0.0193076 -4.94471e-20)
(-0.0113829 0.0193076 -4.98737e-20)
(-0.0101683 0.0193076 0)
(-0.00900222 0.0193076 0)
(-0.00788276 0.0193076 0)
(-0.00680802 0.0193076 0)
(-0.00577621 0.0193076 0)
(-0.00478564 0.0193076 0)
(-0.00383464 0.0193076 1.75919e-20)
(-0.00292163 0.0193076 0)
(-0.0020451 0.0193076 0)
(-0.0012036 0.0193076 0)
(-0.000395709 0.0193076 0)
(-0.0198086 0.0203693 0)
(-0.0182574 0.0203693 0)
(-0.0167681 0.0203693 0)
(-0.0153384 0.0203693 0)
(-0.0139658 0.0203693 0)
(-0.012648 0.0203693 0)
(-0.0113829 0.0203693 0)
(-0.0101683 0.0203693 0)
(-0.00900222 0.0203693 0)
(-0.00788276 0.0203693 0)
(-0.00680802 0.0203693 9.49441e-21)
(-0.00577621 0.0203693 0)
(-0.00478564 0.0203693 0)
(-0.00383464 0.0203693 -1.95619e-20)
(-0.00292163 0.0203693 0)
(-0.0020451 0.0203693 0)
(-0.0012036 0.0203693 0)
(-0.000395709 0.0203693 0)
(-0.0198086 0.0213152 -3.65391e-20)
(-0.0182574 0.0213152 0)
(-0.0167681 0.0213152 -6.77229e-20)
(-0.0153384 0.0213152 4.19484e-20)
(-0.0139658 0.0213152 0)
(-0.012648 0.0213152 -3.07583e-20)
(-0.0113829 0.0213152 -4.87164e-20)
(-0.0101683 0.0213152 3.32437e-20)
(-0.00900222 0.0213152 0)
(-0.00788276 0.0213152 0)
(-0.00680802 0.0213152 0)
(-0.00577621 0.0213152 2.95259e-20)
(-0.00478564 0.0213152 0)
(-0.00383464 0.0213152 1.01336e-20)
(-0.00292163 0.0213152 0)
(-0.0020451 0.0213152 0)
(-0.0012036 0.0213152 2.44101e-20)
(-0.000395709 0.0213152 0)
(-0.0198086 0.0221579 0)
(-0.0182574 0.0221579 0)
(-0.0167681 0.0221579 2.32966e-20)
(-0.0153384 0.0221579 0)
(-0.0139658 0.0221579 0)
(-0.012648 0.0221579 0)
(-0.0113829 0.0221579 0)
(-0.0101683 0.0221579 0)
(-0.00900222 0.0221579 2.93362e-20)
(-0.00788276 0.0221579 0)
(-0.00680802 0.0221579 -4.17657e-20)
(-0.00577621 0.0221579 0)
(-0.00478564 0.0221579 0)
(-0.00383464 0.0221579 -5.98846e-20)
(-0.00292163 0.0221579 0)
(-0.0020451 0.0221579 0)
(-0.0012036 0.0221579 0)
(-0.000395709 0.0221579 0)
(-0.0198086 0.0229087 0)
(-0.0182574 0.0229087 0)
(-0.0167681 0.0229087 5.19303e-20)
(-0.0153384 0.0229087 0)
(-0.0139658 0.0229087 0)
(-0.012648 0.0229087 5.82954e-20)
(-0.0113829 0.0229087 0)
(-0.0101683 0.0229087 3.14962e-20)
(-0.00900222 0.0229087 0)
(-0.00788276 0.0229087 0)
(-0.00680802 0.0229087 -3.53985e-20)
(-0.00577621 0.0229087 0)
(-0.00478564 0.0229087 0)
(-0.00383464 0.0229087 2.70409e-20)
(-0.00292163 0.0229087 0)
(-0.0020451 0.0229087 0)
(-0.0012036 0.0229087 0)
(-0.000395709 0.0229087 0)
(-0.0198086 0.0235775 -3.44925e-20)
(-0.0182574 0.0235775 0)
(-0.0167681 0.0235775 -3.8112e-20)
(-0.0153384 0.0235775 6.97385e-20)
(-0.0139658 0.0235775 0)
(-0.012648 0.0235775 0)
(-0.0113829 0.0235775 -1.07727e-20)
(-0.0101683 0.0235775 0)
(-0.00900222 0.0235775 1.1688e-20)
(-0.00788276 0.0235775 0)
(-0.00680802 0.0235775 0)
(-0.00577621 0.0235775 0)
(-0.00478564 0.0235775 1.52643e-20)
(-0.00383464 0.0235775 0)
(-0.00292163 0.0235775 0)
(-0.0020451 0.0235775 3.26032e-20)
(-0.0012036 0.0235775 0)
(-0.000395709 0.0235775 0)
(-0.0198086 0.0241734 -9.46784e-21)
(-0.0182574 0.0241734 0)
(-0.0167681 0.0241734 0)
(-0.0153384 0.0241734 0)
(-0.0139658 0.0241734 0)
(-0.012648 0.0241734 1.16088e-20)
(-0.0113829 0.0241734 0)
(-0.0101683 0.0241734 0)
(-0.00900222 0.0241734 -4.08639e-20)
(-0.00788276 0.0241734 0)
(-0.00680802 0.0241734 0)
(-0.00577621 0.0241734 1.63322e-20)
(-0.00478564 0.0241734 0)
(-0.00383464 0.0241734 -3.3678e-20)
(-0.00292163 0.0241734 0)
(-0.0020451 0.0241734 0)
(-0.0012036 0.0241734 0)
(-0.000395709 0.0241734 0)
(-0.0198086 0.0247042 0)
(-0.0182574 0.0247042 -3.47145e-20)
(-0.0167681 0.0247042 -3.60965e-20)
(-0.0153384 0.0247042 3.7536e-20)
(-0.0139658 0.0247042 0)
(-0.012648 0.0247042 0)
(-0.0113829 0.0247042 0)
(-0.0101683 0.0247042 -2.27123e-20)
(-0.00900222 0.0247042 1.62318e-20)
(-0.00788276 0.0247042 0)
(-0.00680802 0.0247042 0)
(-0.00577621 0.0247042 0)
(-0.00478564 0.0247042 2.75078e-20)
(-0.00383464 0.0247042 3.76179e-20)
(-0.00292163 0.0247042 -2.03133e-20)
(-0.0020451 0.0247042 -4.06861e-20)
(-0.0012036 0.0247042 -2.19112e-20)
(-0.000395709 0.0247042 0)
(-0.0198086 0.0251772 -2.46104e-20)
(-0.0182574 0.0251772 0)
(-0.0167681 0.0251772 -1.44481e-20)
(-0.0153384 0.0251772 0)
(-0.0139658 0.0251772 0)
(-0.012648 0.0251772 -1.61321e-20)
(-0.0113829 0.0251772 0)
(-0.0101683 0.0251772 0)
(-0.00900222 0.0251772 0)
(-0.00788276 0.0251772 -2.73317e-20)
(-0.00680802 0.0251772 0)
(-0.00577621 0.0251772 0)
(-0.00478564 0.0251772 0)
(-0.00383464 0.0251772 0)
(-0.00292163 0.0251772 0)
(-0.0020451 0.0251772 0)
(-0.0012036 0.0251772 0)
(-0.000395709 0.0251772 0)
(0.000264174 -0.0248335 0)
(0.000794615 -0.0248337 0)
(0.00132918 -0.024834 0)
(0.0018679 -0.0248342 0)
(0.00241081 -0.0248345 2.80534e-20)
(0.00295794 -0.0248347 1.43041e-20)
(0.00350933 -0.024835 2.76585e-20)
(0.004065 -0.0248353 0)
(0.00462499 -0.0248355 1.32583e-20)
(0.00518933 -0.0248358 -2.70775e-20)
(0.00575807 -0.0248361 -1.30669e-20)
(0.00633122 -0.0248363 0)
(0.00690883 -0.0248366 2.651e-20)
(0.00749093 -0.0248369 0)
(0.00807756 -0.0248371 0)
(0.00866875 -0.0248374 -2.59556e-20)
(0.00926453 -0.0248377 -1.25103e-20)
(0.00986495 -0.024838 3.80132e-20)
(0.01047 -0.0248383 5.00751e-20)
(0.0110798 -0.0248386 0)
(0.0116944 -0.0248389 3.72135e-20)
(0.0123137 -0.0248391 0)
(0.0129378 -0.0248394 0)
(0.0135668 -0.0248397 0)
(0.0142006 -0.02484 6.05444e-20)
(0.0148394 -0.0248403 0)
(0.0154832 -0.0248406 3.56693e-20)
(0.0161319 -0.0248409 -3.54189e-20)
(0.0167857 -0.0248413 -1.14725e-20)
(0.0174446 -0.0248416 3.4924e-20)
(0.0181087 -0.0248419 -1.20619e-20)
(0.0187778 -0.0248422 0)
(0.0194522 -0.0248425 0)
(0.0201318 -0.0248428 0)
(0.0208167 -0.0248432 0)
(0.021507 -0.0248435 0)
(0.0222026 -0.0248438 0)
(0.0229036 -0.0248441 0)
(0.02361 -0.0248445 -1.14322e-20)
(0.024322 -0.0248448 2.19593e-20)
(0.0250395 -0.0248452 -2.10554e-20)
(0.0257625 -0.0248455 0)
(0.0264912 -0.0248458 3.18892e-20)
(0.0272256 -0.0248462 -1.03051e-20)
(0.0279656 -0.0248465 -2.12172e-20)
(0.0287114 -0.0248469 0)
(0.029463 -0.0248472 0)
(0.0302205 -0.0248476 -1.00163e-20)
(0.0309838 -0.024848 0)
(0.0317531 -0.0248483 0)
(0.0325284 -0.0248487 0)
(0.0333097 -0.0248491 -3.9699e-20)
(0.034097 -0.0248494 0)
(0.0348905 -0.0248498 9.59981e-21)
(0.0356901 -0.0248502 9.53229e-21)
(0.036496 -0.0248506 9.4653e-21)
(0.0373082 -0.0248509 0)
(0.0381266 -0.0248513 -9.33289e-21)
(0.0389514 -0.0248517 -2.85555e-20)
(0.0397826 -0.0248521 -9.20255e-21)
(0.0406203 -0.0248525 2.81676e-20)
(0.0414645 -0.0248529 0)
(0.0423153 -0.0248533 0)
(0.0431727 -0.0248537 0)
(0.0440367 -0.0248541 0)
(0.0449075 -0.0248545 0)
(0.045785 -0.0248549 0)
(0.0466693 -0.0248554 0)
(0.0475606 -0.0248558 4.47106e-20)
(0.0484587 -0.0248562 0)
(0.0493639 -0.0248566 0)
(0.050276 -0.0248571 2.61402e-20)
(0.0511953 -0.0248575 1.75607e-20)
(0.0521217 -0.0248579 -3.41358e-20)
(0.0530554 -0.0248584 0)
(0.0539962 -0.0248588 0)
(0.0549444 -0.0248593 -3.34495e-20)
(0.0559 -0.0248597 0)
(0.056863 -0.0248602 0)
(0.0578335 -0.0248606 -1.67663e-20)
(0.0588115 -0.0248611 3.25595e-20)
(0.0597971 -0.0248616 0)
(0.0607904 -0.024862 0)
(0.0617914 -0.0248625 1.63318e-20)
(0.0628002 -0.024863 -7.73605e-21)
(0.0638169 -0.0248635 0)
(0.0648414 -0.0248639 -1.52617e-20)
(0.0658739 -0.0248644 -3.10686e-20)
(0.0669145 -0.0248649 0)
(0.0679631 -0.0248654 0)
(0.0690199 -0.0248659 -6.83349e-20)
(0.0700849 -0.0248664 -3.02534e-20)
(0.0711581 -0.0248669 0)
(0.0722398 -0.0248674 0)
(0.0733298 -0.0248679 0)
(0.0744283 -0.0248685 0)
(0.0755353 -0.024869 3.63996e-20)
(0.076651 -0.0248695 0)
(0.0777753 -0.02487 -2.18544e-20)
(0.0789084 -0.0248706 0)
(0.0800503 -0.0248711 0)
(0.081201 -0.0248717 -5.66521e-20)
(0.0823607 -0.0248722 0)
(0.0835295 -0.0248728 2.79588e-20)
(0.0847073 -0.0248733 0)
(0.0858942 -0.0248739 -1.34221e-20)
(0.0870904 -0.0248744 2.7419e-20)
(0.0882959 -0.024875 0)
(0.0895108 -0.0248756 0)
(0.0907351 -0.0248762 0)
(0.0919689 -0.0248767 -1.37363e-20)
(0.0932123 -0.0248773 1.28974e-20)
(0.0944654 -0.0248779 -1.28124e-20)
(0.0957282 -0.0248785 -2.62094e-20)
(0.0970009 -0.0248791 0)
(0.0982834 -0.0248797 -5.17525e-20)
(0.0995759 -0.0248803 0)
(0.100878 -0.0248809 -1.23976e-20)
(0.102191 -0.0248816 0)
(0.103514 -0.0248822 3.74624e-20)
(0.104847 -0.0248828 2.50668e-20)
(0.106191 -0.0248835 -1.20777e-20)
(0.107545 -0.0248841 0)
(0.108909 -0.0248847 0)
(0.110284 -0.0248854 0)
(0.11167 -0.024886 0)
(0.113067 -0.0248867 -1.24458e-20)
(0.114474 -0.0248874 0)
(0.115893 -0.024888 -1.22961e-20)
(0.117322 -0.0248887 1.14688e-20)
(0.118763 -0.0248894 -4.63352e-20)
(0.120214 -0.0248901 -2.33989e-20)
(0.121677 -0.0248908 0)
(0.123152 -0.0248915 -1.19325e-20)
(0.124638 -0.0248922 1.11082e-20)
(0.126135 -0.0248929 3.38669e-20)
(0.127644 -0.0248936 0)
(0.129165 -0.0248943 3.34502e-20)
(0.130698 -0.024895 0)
(0.132242 -0.0248957 0)
(0.133799 -0.0248965 0)
(0.135367 -0.0248972 0)
(0.136948 -0.024898 0)
(0.138541 -0.0248987 0)
(0.140147 -0.0248995 1.04307e-20)
(0.141765 -0.0249002 1.0366e-20)
(0.143395 -0.024901 -1.03019e-20)
(0.145038 -0.0249018 1.02384e-20)
(0.146694 -0.0249026 0)
(0.148363 -0.0249034 0)
(0.150045 -0.0249041 0)
(0.15174 -0.0249049 -3.07219e-20)
(0.153448 -0.0249058 0)
(0.15517 -0.0249066 0)
(0.156904 -0.0249074 -2.03702e-20)
(0.158653 -0.0249082 -3.97495e-20)
(0.160415 -0.024909 0)
(0.16219 -0.0249099 0)
(0.16398 -0.0249107 -2.94756e-20)
(0.165783 -0.0249116 0)
(0.1676 -0.0249124 -2.91333e-20)
(0.169432 -0.0249133 0)
(0.171277 -0.0249142 -3.81447e-20)
(0.173137 -0.024915 0)
(0.175012 -0.0249159 9.23764e-21)
(0.176901 -0.0249168 5.66068e-20)
(0.178805 -0.0249177 2.81418e-20)
(0.180723 -0.0249186 3.70577e-20)
(0.182657 -0.0249195 0)
(0.184605 -0.0249205 0)
(0.186569 -0.0249214 0)
(0.188548 -0.0249223 -3.62224e-20)
(0.190542 -0.0249233 3.60182e-20)
(0.192552 -0.0249242 -3.58159e-20)
(0.194577 -0.0249252 0)
(0.196618 -0.0249261 0)
(0.198675 -0.0249271 0)
(0.200748 -0.0249281 0)
(0.202837 -0.0249291 0)
(0.204943 -0.0249301 -3.46405e-20)
(0.000264174 -0.0237004 0)
(0.000794615 -0.0237011 0)
(0.00132918 -0.0237019 -2.92075e-20)
(0.0018679 -0.0237026 2.90061e-20)
(0.00241081 -0.0237034 1.36502e-20)
(0.00295794 -0.0237042 0)
(0.00350933 -0.023705 2.84114e-20)
(0.004065 -0.0237058 0)
(0.00462499 -0.0237065 -4.12809e-20)
(0.00518933 -0.0237073 -5.41549e-20)
(0.00575807 -0.0237082 0)
(0.00633122 -0.023709 2.74506e-20)
(0.00690883 -0.0237098 1.43845e-20)
(0.00749093 -0.0237106 0)
(0.00807756 -0.0237114 1.41989e-20)
(0.00866875 -0.0237123 -1.41073e-20)
(0.00926453 -0.0237131 0)
(0.00986495 -0.023714 0)
(0.01047 -0.0237148 0)
(0.0110798 -0.0237157 0)
(0.0116944 -0.0237166 0)
(0.0123137 -0.0237174 0)
(0.0129378 -0.0237183 -2.54644e-20)
(0.0135668 -0.0237192 0)
(0.0142006 -0.0237201 -1.18076e-20)
(0.0148394 -0.023721 1.17229e-20)
(0.0154832 -0.0237219 0)
(0.0161319 -0.0237228 0)
(0.0167857 -0.0237238 0)
(0.0174446 -0.0237247 0)
(0.0181087 -0.0237256 1.28148e-20)
(0.0187778 -0.0237266 0)
(0.0194522 -0.0237275 0)
(0.0201318 -0.0237285 0)
(0.0208167 -0.0237295 -3.44729e-20)
(0.021507 -0.0237305 0)
(0.0222026 -0.0237314 0)
(0.0229036 -0.0237324 2.30173e-20)
(0.02361 -0.0237334 0)
(0.024322 -0.0237344 -2.27122e-20)
(0.0250395 -0.0237355 0)
(0.0257625 -0.0237365 0)
(0.0264912 -0.0237375 0)
(0.0272256 -0.0237385 0)
(0.0279656 -0.0237396 4.24342e-20)
(0.0287114 -0.0237407 0)
(0.029463 -0.0237417 1.00876e-20)
(0.0302205 -0.0237428 1.00163e-20)
(0.0309838 -0.0237439 -2.13971e-20)
(0.0317531 -0.023745 0)
(0.0325284 -0.0237461 0)
(0.0333097 -0.0237472 0)
(0.034097 -0.0237483 0)
(0.0348905 -0.0237494 0)
(0.0356901 -0.0237505 9.53229e-21)
(0.036496 -0.0237517 0)
(0.0373082 -0.0237528 -9.39883e-21)
(0.0381266 -0.023754 -9.33289e-21)
(0.0389514 -0.0237551 2.93085e-20)
(0.0397826 -0.0237563 0)
(0.0406203 -0.0237575 0)
(0.0414645 -0.0237587 0)
(0.0423153 -0.0237599 -2.85387e-20)
(0.0431727 -0.0237611 3.7298e-20)
(0.0440367 -0.0237623 0)
(0.0449075 -0.0237636 0)
(0.045785 -0.0237648 0)
(0.0466693 -0.0237661 2.761e-20)
(0.0475606 -0.0237673 0)
(0.0484587 -0.0237686 3.73357e-20)
(0.0493639 -0.0237699 -2.70702e-20)
(0.050276 -0.0237712 0)
(0.0511953 -0.0237725 1.83136e-20)
(0.0521217 -0.0237738 0)
(0.0530554 -0.0237751 3.46581e-20)
(0.0539962 -0.0237765 0)
(0.0549444 -0.0237778 0)
(0.0559 -0.0237791 -1.77417e-20)
(0.056863 -0.0237805 0)
(0.0578335 -0.0237819 -1.60131e-20)
(0.0588115 -0.0237833 1.74093e-20)
(0.0597971 -0.0237847 -3.30943e-20)
(0.0607904 -0.0237861 0)
(0.0617914 -0.0237875 1.55786e-20)
(0.0628002 -0.0237889 1.69782e-20)
(0.0638169 -0.0237904 0)
(0.0648414 -0.0237918 -3.20295e-20)
(0.0658739 -0.0237933 1.66638e-20)
(0.0669145 -0.0237947 0)
(0.0679631 -0.0237962 2.39345e-20)
(0.0690199 -0.0237977 0)
(0.0700849 -0.0237992 0)
(0.0711581 -0.0238007 -3.08065e-20)
(0.0722398 -0.0238023 0)
(0.0733298 -0.0238038 0)
(0.0744283 -0.0238054 -3.02167e-20)
(0.0755353 -0.0238069 0)
(0.076651 -0.0238085 0)
(0.0777753 -0.0238101 2.26073e-20)
(0.0789084 -0.0238117 0)
(0.0800503 -0.0238133 2.0819e-20)
(0.081201 -0.023815 -1.37864e-20)
(0.0823607 -0.0238166 -4.25888e-20)
(0.0835295 -0.0238183 0)
(0.0847073 -0.0238199 0)
(0.0858942 -0.0238216 -4.17726e-20)
(0.0870904 -0.0238233 0)
(0.0882959 -0.023825 1.47506e-20)
(0.0895108 -0.0238267 -2.78193e-20)
(0.0907351 -0.0238285 0)
(0.0919689 -0.0238302 0)
(0.0932123 -0.023832 0)
(0.0944654 -0.0238337 5.42619e-20)
(0.0957282 -0.0238355 0)
(0.0970009 -0.0238373 0)
(0.0982834 -0.0238392 0)
(0.0995759 -0.023841 0)
(0.100878 -0.0238428 0)
(0.102191 -0.0238447 1.23166e-20)
(0.103514 -0.0238466 1.37426e-20)
(0.104847 -0.0238484 -6.37961e-20)
(0.106191 -0.0238504 1.20777e-20)
(0.107545 -0.0238523 0)
(0.108909 -0.0238542 0)
(0.110284 -0.0238561 -1.18447e-20)
(0.11167 -0.0238581 0)
(0.113067 -0.0238601 0)
(0.114474 -0.0238621 0)
(0.115893 -0.0238641 -2.45917e-20)
(0.117322 -0.0238661 0)
(0.118763 -0.0238682 0)
(0.120214 -0.0238702 1.13227e-20)
(0.121677 -0.0238723 1.12506e-20)
(0.123152 -0.0238744 -7.00872e-20)
(0.124638 -0.0238765 -1.11082e-20)
(0.126135 -0.0238786 6.92396e-20)
(0.127644 -0.0238807 0)
(0.129165 -0.0238829 1.08989e-20)
(0.130698 -0.023885 0)
(0.132242 -0.0238872 0)
(0.133799 -0.0238894 -6.71818e-20)
(0.135367 -0.0238917 0)
(0.136948 -0.0238939 0)
(0.138541 -0.0238962 2.24981e-20)
(0.140147 -0.0238984 -2.23677e-20)
(0.141765 -0.0239007 -1.0366e-20)
(0.143395 -0.023903 2.21102e-20)
(0.145038 -0.0239054 -4.24598e-20)
(0.146694 -0.0239077 0)
(0.148363 -0.0239101 2.17321e-20)
(0.150045 -0.0239124 7.3369e-20)
(0.15174 -0.0239148 0)
(0.153448 -0.0239173 -6.25842e-20)
(0.15517 -0.0239197 0)
(0.156904 -0.0239222 3.09314e-20)
(0.158653 -0.0239246 0)
(0.160415 -0.0239271 4.02671e-20)
(0.16219 -0.0239296 0)
(0.16398 -0.0239322 -9.57405e-21)
(0.165783 -0.0239347 3.00566e-20)
(0.1676 -0.0239373 -3.93462e-20)
(0.169432 -0.0239399 0)
(0.171277 -0.0239425 0)
(0.173137 -0.0239451 0)
(0.175012 -0.0239478 0)
(0.176901 -0.0239505 0)
(0.178805 -0.0239532 -2.88947e-20)
(0.180723 -0.0239559 0)
(0.182657 -0.0239586 1.95527e-20)
(0.184605 -0.0239614 0)
(0.186569 -0.0239642 3.71813e-20)
(0.188548 -0.023967 2.81081e-20)
(0.190542 -0.0239698 3.67712e-20)
(0.192552 -0.0239726 -3.65689e-20)
(0.194577 -0.0239755 0)
(0.196618 -0.0239784 0)
(0.198675 -0.0239813 4.60961e-20)
(0.200748 -0.0239842 0)
(0.202837 -0.0239872 0)
(0.204943 -0.0239902 -1.69434e-20)
(0.000264174 -0.0225673 0)
(0.000794615 -0.0225685 0)
(0.00132918 -0.0225698 -2.92075e-20)
(0.0018679 -0.0225711 0)
(0.00241081 -0.0225724 0)
(0.00295794 -0.0225736 4.21591e-20)
(0.00350933 -0.0225749 4.33701e-20)
(0.004065 -0.0225763 1.33551e-20)
(0.00462499 -0.0225776 0)
(0.00518933 -0.0225789 -4.09926e-20)
(0.00575807 -0.0225803 0)
(0.00633122 -0.0225816 -2.74506e-20)
(0.00690883 -0.022583 1.43845e-20)
(0.00749093 -0.0225843 0)
(0.00807756 -0.0225857 0)
(0.00866875 -0.0225871 0)
(0.00926453 -0.0225885 0)
(0.00986495 -0.0225899 0)
(0.01047 -0.0225914 0)
(0.0110798 -0.0225928 0)
(0.0116944 -0.0225943 3.79664e-20)
(0.0123137 -0.0225957 0)
(0.0129378 -0.0225972 1.19792e-20)
(0.0135668 -0.0225987 0)
(0.0142006 -0.0226002 6.20502e-20)
(0.0148394 -0.0226017 3.66746e-20)
(0.0154832 -0.0226032 2.47835e-20)
(0.0161319 -0.0226047 0)
(0.0167857 -0.0226063 0)
(0.0174446 -0.0226078 2.42866e-20)
(0.0181087 -0.0226094 2.41236e-20)
(0.0187778 -0.022611 1.27339e-20)
(0.0194522 -0.0226126 6.98977e-20)
(0.0201318 -0.0226142 -2.3642e-20)
(0.0208167 -0.0226158 -1.0989e-20)
(0.021507 -0.0226174 -3.42378e-20)
(0.0222026 -0.0226191 0)
(0.0229036 -0.0226207 2.15112e-20)
(0.02361 -0.0226224 0)
(0.024322 -0.0226241 0)
(0.0250395 -0.0226258 3.30891e-20)
(0.0257625 -0.0226275 3.28648e-20)
(0.0264912 -0.0226292 3.26421e-20)
(0.0272256 -0.0226309 -1.03051e-20)
(0.0279656 -0.0226327 -3.22021e-20)
(0.0287114 -0.0226344 3.19847e-20)
(0.029463 -0.0226362 -3.1769e-20)
(0.0302205 -0.022638 -1.00163e-20)
(0.0309838 -0.0226398 3.13426e-20)
(0.0317531 -0.0226416 0)
(0.0325284 -0.0226434 -3.09228e-20)
(0.0333097 -0.0226453 -3.07154e-20)
(0.034097 -0.0226471 4.01775e-20)
(0.0348905 -0.022649 3.03055e-20)
(0.0356901 -0.0226509 0)
(0.036496 -0.0226528 0)
(0.0373082 -0.0226547 0)
(0.0381266 -0.0226566 -9.33289e-21)
(0.0389514 -0.0226586 0)
(0.0397826 -0.0226605 2.91137e-20)
(0.0406203 -0.0226625 9.13815e-21)
(0.0414645 -0.0226645 0)
(0.0423153 -0.0226665 3.75495e-20)
(0.0431727 -0.0226685 2.835e-20)
(0.0440367 -0.0226706 0)
(0.0449075 -0.0226726 0)
(0.045785 -0.0226747 0)
(0.0466693 -0.0226768 0)
(0.0475606 -0.0226789 0)
(0.0484587 -0.022681 0)
(0.0493639 -0.0226832 2.70702e-20)
(0.050276 -0.0226853 2.68931e-20)
(0.0511953 -0.0226875 -1.68075e-20)
(0.0521217 -0.0226897 -2.65431e-20)
(0.0530554 -0.0226919 -2.63701e-20)
(0.0539962 -0.0226941 3.44294e-20)
(0.0549444 -0.0226963 -3.42024e-20)
(0.0559 -0.0226986 -3.39773e-20)
(0.056863 -0.0227008 0)
(0.0578335 -0.0227031 -1.75192e-20)
(0.0588115 -0.0227054 1.74093e-20)
(0.0597971 -0.0227078 1.73002e-20)
(0.0607904 -0.0227101 0)
(0.0617914 -0.0227125 0)
(0.0628002 -0.0227149 -1.69782e-20)
(0.0638169 -0.0227173 0)
(0.0648414 -0.0227197 -3.20295e-20)
(0.0658739 -0.0227221 -4.84854e-20)
(0.0669145 -0.0227246 0)
(0.0679631 -0.022727 0)
(0.0690199 -0.0227295 1.63569e-20)
(0.0700849 -0.0227321 -5.46375e-20)
(0.0711581 -0.0227346 4.69629e-20)