/*--------------------------------*- C++ -*----------------------------------*\
| =========                 |                                                 |
| \\      /  F ield         | OpenFOAM: The Open Source CFD Toolbox           |
|  \\    /   O peration     | Version:  5.x                                   |
|   \\  /    A nd           | Web:      www.OpenFOAM.org                      |
|    \\/     M anipulation  |                                                 |
\*---------------------------------------------------------------------------*/
FoamFile
{
    version     2.0;
    format      ascii;
    class       volScalarField;
    location    "0";
    object      Cy;
}
// * * * * * * * * * * * * * * * * * * * * * * * * * * * * * * * * * * * * * //

dimensions      [0 1 0 0 0 0 0];

internalField   nonuniform List<scalar> 
12225
(
0.000156695
0.000156695
0.000156695
0.000156695
0.000156695
0.000156695
0.000156695
0.000156695
0.000156695
0.000156695
0.000156695
0.000156695
0.000156695
0.000156695
0.000156695
0.000156695
0.000156695
0.000156695
0.000486212
0.000486212
0.000486212
0.000486212
0.000486212
0.000486212
0.000486212
0.000486212
0.000486212
0.000486212
0.000486212
0.000486212
0.000486212
0.000486212
0.000486212
0.000486212
0.000486212
0.000486212
0.000849643
0.000849643
0.000849643
0.000849643
0.000849643
0.000849643
0.000849643
0.000849643
0.000849643
0.000849643
0.000849643
0.000849643
0.000849643
0.000849643
0.000849643
0.000849643
0.000849643
0.000849643
0.00125048
0.00125048
0.00125048
0.00125048
0.00125048
0.00125048
0.00125048
0.00125048
0.00125048
0.00125048
0.00125048
0.00125048
0.00125048
0.00125048
0.00125048
0.00125048
0.00125048
0.00125048
0.00169257
0.00169257
0.00169257
0.00169257
0.00169257
0.00169257
0.00169257
0.00169257
0.00169257
0.00169257
0.00169257
0.00169257
0.00169257
0.00169257
0.00169257
0.00169257
0.00169257
0.00169257
0.00218017
0.00218017
0.00218017
0.00218017
0.00218017
0.00218017
0.00218017
0.00218017
0.00218017
0.00218017
0.00218017
0.00218017
0.00218017
0.00218017
0.00218017
0.00218017
0.00218017
0.00218017
0.00271795
0.00271795
0.00271795
0.00271795
0.00271795
0.00271795
0.00271795
0.00271795
0.00271795
0.00271795
0.00271795
0.00271795
0.00271795
0.00271795
0.00271795
0.00271795
0.00271795
0.00271795
0.00322031
0.00322031
0.00322031
0.00322031
0.00322031
0.00322031
0.00322031
0.00322031
0.00322031
0.00322031
0.00322031
0.00322031
0.00322031
0.00322031
0.00322031
0.00322031
0.00322031
0.00322031
0.0036976
0.0036976
0.0036976
0.0036976
0.0036976
0.0036976
0.0036976
0.0036976
0.0036976
0.0036976
0.0036976
0.0036976
0.0036976
0.0036976
0.0036976
0.0036976
0.0036976
0.0036976
0.00425439
0.00425439
0.00425439
0.00425439
0.00425439
0.00425439
0.00425439
0.00425439
0.00425439
0.00425439
0.00425439
0.00425439
0.00425439
0.00425439
0.00425439
0.00425439
0.00425439
0.00425439
0.00490389
0.00490389
0.00490389
0.00490389
0.00490389
0.00490389
0.00490389
0.00490389
0.00490389
0.00490389
0.00490389
0.00490389
0.00490389
0.00490389
0.00490389
0.00490389
0.00490389
0.00490389
0.00566155
0.00566155
0.00566155
0.00566155
0.00566155
0.00566155
0.00566155
0.00566155
0.00566155
0.00566155
0.00566155
0.00566155
0.00566155
0.00566155
0.00566155
0.00566155
0.00566155
0.00566155
0.00654539
0.00654539
0.00654539
0.00654539
0.00654539
0.00654539
0.00654539
0.00654539
0.00654539
0.00654539
0.00654539
0.00654539
0.00654539
0.00654539
0.00654539
0.00654539
0.00654539
0.00654539
0.00757641
0.00757641
0.00757641
0.00757641
0.00757641
0.00757641
0.00757641
0.00757641
0.00757641
0.00757641
0.00757641
0.00757641
0.00757641
0.00757641
0.00757641
0.00757641
0.00757641
0.00757641
0.00877913
0.00877913
0.00877913
0.00877913
0.00877913
0.00877913
0.00877913
0.00877913
0.00877913
0.00877913
0.00877913
0.00877913
0.00877913
0.00877913
0.00877913
0.00877913
0.00877913
0.00877913
0.0101821
0.0101821
0.0101821
0.0101821
0.0101821
0.0101821
0.0101821
0.0101821
0.0101821
0.0101821
0.0101821
0.0101821
0.0101821
0.0101821
0.0101821
0.0101821
0.0101821
0.0101821
0.0118188
0.0118188
0.0118188
0.0118188
0.0118188
0.0118188
0.0118188
0.0118188
0.0118188
0.0118188
0.0118188
0.0118188
0.0118188
0.0118188
0.0118188
0.0118188
0.0118188
0.0118188
0.0135913
0.0135913
0.0135913
0.0135913
0.0135913
0.0135913
0.0135913
0.0135913
0.0135913
0.0135913
0.0135913
0.0135913
0.0135913
0.0135913
0.0135913
0.0135913
0.0135913
0.0135913
0.0152767
0.0152767
0.0152767
0.0152767
0.0152767
0.0152767
0.0152767
0.0152767
0.0152767
0.0152767
0.0152767
0.0152767
0.0152767
0.0152767
0.0152767
0.0152767
0.0152767
0.0152767
0.0167782
0.0167782
0.0167782
0.0167782
0.0167782
0.0167782
0.0167782
0.0167782
0.0167782
0.0167782
0.0167782
0.0167782
0.0167782
0.0167782
0.0167782
0.0167782
0.0167782
0.0167782
0.0181159
0.0181159
0.0181159
0.0181159
0.0181159
0.0181159
0.0181159
0.0181159
0.0181159
0.0181159
0.0181159
0.0181159
0.0181159
0.0181159
0.0181159
0.0181159
0.0181159
0.0181159
0.0193076
0.0193076
0.0193076
0.0193076
0.0193076
0.0193076
0.0193076
0.0193076
0.0193076
0.0193076
0.0193076
0.0193076
0.0193076
0.0193076
0.0193076
0.0193076
0.0193076
0.0193076
0.0203693
0.0203693
0.0203693
0.0203693
0.0203693
0.0203693
0.0203693
0.0203693
0.0203693
0.0203693
0.0203693
0.0203693
0.0203693
0.0203693
0.0203693
0.0203693
0.0203693
0.0203693
0.0213152
0.0213152
0.0213152
0.0213152
0.0213152
0.0213152
0.0213152
0.0213152
0.0213152
0.0213152
0.0213152
0.0213152
0.0213152
0.0213152
0.0213152
0.0213152
0.0213152
0.0213152
0.0221579
0.0221579
0.0221579
0.0221579
0.0221579
0.0221579
0.0221579
0.0221579
0.0221579
0.0221579
0.0221579
0.0221579
0.0221579
0.0221579
0.0221579
0.0221579
0.0221579
0.0221579
0.0229087
0.0229087
0.0229087
0.0229087
0.0229087
0.0229087
0.0229087
0.0229087
0.0229087
0.0229087
0.0229087
0.0229087
0.0229087
0.0229087
0.0229087
0.0229087
0.0229087
0.0229087
0.0235775
0.0235775
0.0235775
0.0235775
0.0235775
0.0235775
0.0235775
0.0235775
0.0235775
0.0235775
0.0235775
0.0235775
0.0235775
0.0235775
0.0235775
0.0235775
0.0235775
0.0235775
0.0241734
0.0241734
0.0241734
0.0241734
0.0241734
0.0241734
0.0241734
0.0241734
0.0241734
0.0241734
0.0241734
0.0241734
0.0241734
0.0241734
0.0241734
0.0241734
0.0241734
0.0241734
0.0247042
0.0247042
0.0247042
0.0247042
0.0247042
0.0247042
0.0247042
0.0247042
0.0247042
0.0247042
0.0247042
0.0247042
0.0247042
0.0247042
0.0247042
0.0247042
0.0247042
0.0247042
0.0251772
0.0251772
0.0251772
0.0251772
0.0251772
0.0251772
0.0251772
0.0251772
0.0251772
0.0251772
0.0251772
0.0251772
0.0251772
0.0251772
0.0251772
0.0251772
0.0251772
0.0251772
-0.0248335
-0.0248337
-0.024834
-0.0248342
-0.0248345
-0.0248347
-0.024835
-0.0248353
-0.0248355
-0.0248358
-0.0248361
-0.0248363
-0.0248366
-0.0248369
-0.0248371
-0.0248374
-0.0248377
-0.024838
-0.0248383
-0.0248386
-0.0248389
-0.0248391
-0.0248394
-0.0248397
-0.02484
-0.0248403
-0.0248406
-0.0248409
-0.0248413
-0.0248416
-0.0248419
-0.0248422
-0.0248425
-0.0248428
-0.0248432
-0.0248435
-0.0248438
-0.0248441
-0.0248445
-0.0248448
-0.0248452
-0.0248455
-0.0248458
-0.0248462
-0.0248465
-0.0248469
-0.0248472
-0.0248476
-0.024848
-0.0248483
-0.0248487
-0.0248491
-0.0248494
-0.0248498
-0.0248502
-0.0248506
-0.0248509
-0.0248513
-0.0248517
-0.0248521
-0.0248525
-0.0248529
-0.0248533
-0.0248537
-0.0248541
-0.0248545
-0.0248549
-0.0248554
-0.0248558
-0.0248562
-0.0248566
-0.0248571
-0.0248575
-0.0248579
-0.0248584
-0.0248588
-0.0248593
-0.0248597
-0.0248602
-0.0248606
-0.0248611
-0.0248616
-0.024862
-0.0248625
-0.024863
-0.0248635
-0.0248639
-0.0248644
-0.0248649
-0.0248654
-0.0248659
-0.0248664
-0.0248669
-0.0248674
-0.0248679
-0.0248685
-0.024869
-0.0248695
-0.02487
-0.0248706
-0.0248711
-0.0248717
-0.0248722
-0.0248728
-0.0248733
-0.0248739
-0.0248744
-0.024875
-0.0248756
-0.0248762
-0.0248767
-0.0248773
-0.0248779
-0.0248785
-0.0248791
-0.0248797
-0.0248803
-0.0248809
-0.0248816
-0.0248822
-0.0248828
-0.0248835
-0.0248841
-0.0248847
-0.0248854
-0.024886
-0.0248867
-0.0248874
-0.024888
-0.0248887
-0.0248894
-0.0248901
-0.0248908
-0.0248915
-0.0248922
-0.0248929
-0.0248936
-0.0248943
-0.024895
-0.0248957
-0.0248965
-0.0248972
-0.024898
-0.0248987
-0.0248995
-0.0249002
-0.024901
-0.0249018
-0.0249026
-0.0249034
-0.0249041
-0.0249049
-0.0249058
-0.0249066
-0.0249074
-0.0249082
-0.024909
-0.0249099
-0.0249107
-0.0249116
-0.0249124
-0.0249133
-0.0249142
-0.024915
-0.0249159
-0.0249168
-0.0249177
-0.0249186
-0.0249195
-0.0249205
-0.0249214
-0.0249223
-0.0249233
-0.0249242
-0.0249252
-0.0249261
-0.0249271
-0.0249281
-0.0249291
-0.0249301
-0.0237004
-0.0237011
-0.0237019
-0.0237026
-0.0237034
-0.0237042
-0.023705
-0.0237058
-0.0237065
-0.0237073
-0.0237082
-0.023709
-0.0237098
-0.0237106
-0.0237114
-0.0237123
-0.0237131
-0.023714
-0.0237148
-0.0237157
-0.0237166
-0.0237174
-0.0237183
-0.0237192
-0.0237201
-0.023721
-0.0237219
-0.0237228
-0.0237238
-0.0237247
-0.0237256
-0.0237266
-0.0237275
-0.0237285
-0.0237295
-0.0237305
-0.0237314
-0.0237324
-0.0237334
-0.0237344
-0.0237355
-0.0237365
-0.0237375
-0.0237385
-0.0237396
-0.0237407
-0.0237417
-0.0237428
-0.0237439
-0.023745
-0.0237461
-0.0237472
-0.0237483
-0.0237494
-0.0237505
-0.0237517
-0.0237528
-0.023754
-0.0237551
-0.0237563
-0.0237575
-0.0237587
-0.0237599
-0.0237611
-0.0237623
-0.0237636
-0.0237648
-0.0237661
-0.0237673
-0.0237686
-0.0237699
-0.0237712
-0.0237725
-0.0237738
-0.0237751
-0.0237765
-0.0237778
-0.0237791
-0.0237805
-0.0237819
-0.0237833
-0.0237847
-0.0237861
-0.0237875
-0.0237889
-0.0237904
-0.0237918
-0.0237933
-0.0237947
-0.0237962
-0.0237977
-0.0237992
-0.0238007
-0.0238023
-0.0238038
-0.0238054
-0.0238069
-0.0238085
-0.0238101
-0.0238117
-0.0238133
-0.023815
-0.0238166
-0.0238183
-0.0238199
-0.0238216
-0.0238233
-0.023825
-0.0238267
-0.0238285
-0.0238302
-0.023832
-0.0238337
-0.0238355
-0.0238373
-0.0238392
-0.023841
-0.0238428
-0.0238447
-0.0238466
-0.0238484
-0.0238504
-0.0238523
-0.0238542
-0.0238561
-0.0238581
-0.0238601
-0.0238621
-0.0238641
-0.0238661
-0.0238682
-0.0238702
-0.0238723
-0.0238744
-0.0238765
-0.0238786
-0.0238807
-0.0238829
-0.023885
-0.0238872
-0.0238894
-0.0238917
-0.0238939
-0.0238962
-0.0238984
-0.0239007
-0.023903
-0.0239054
-0.0239077
-0.0239101
-0.0239124
-0.0239148
-0.0239173
-0.0239197
-0.0239222
-0.0239246
-0.0239271
-0.0239296
-0.0239322
-0.0239347
-0.0239373
-0.0239399
-0.0239425
-0.0239451
-0.0239478
-0.0239505
-0.0239532
-0.0239559
-0.0239586
-0.0239614
-0.0239642
-0.023967
-0.0239698
-0.0239726
-0.0239755
-0.0239784
-0.0239813
-0.0239842
-0.0239872
-0.0239902
-0.0225673
-0.0225685
-0.0225698
-0.0225711
-0.0225724
-0.0225736
-0.0225749
-0.0225763
-0.0225776
-0.0225789
-0.0225803
-0.0225816
-0.022583
-0.0225843
-0.0225857
-0.0225871
-0.0225885
-0.0225899
-0.0225914
-0.0225928
-0.0225943
-0.0225957
-0.0225972
-0.0225987
-0.0226002
-0.0226017
-0.0226032
-0.0226047
-0.0226063
-0.0226078
-0.0226094
-0.022611
-0.0226126
-0.0226142
-0.0226158
-0.0226174
-0.0226191
-0.0226207
-0.0226224
-0.0226241
-0.0226258
-0.0226275
-0.0226292
-0.0226309
-0.0226327
-0.0226344
-0.0226362
-0.022638
-0.0226398
-0.0226416
-0.0226434
-0.0226453
-0.0226471
-0.022649
-0.0226509
-0.0226528
-0.0226547
-0.0226566
-0.0226586
-0.0226605
-0.0226625
-0.0226645
-0.0226665
-0.0226685
-0.0226706
-0.0226726
-0.0226747
-0.0226768
-0.0226789
-0.022681
-0.0226832
-0.0226853
-0.0226875
-0.0226897
-0.0226919
-0.0226941
-0.0226963
-0.0226986
-0.0227008
-0.0227031
-0.0227054
-0.0227078
-0.0227101
-0.0227125
-0.0227149
-0.0227173
-0.0227197
-0.0227221
-0.0227246
-0.022727
-0.0227295
-0.0227321
-0.0227346
-0.0227371
-0.0227397
-0.0227423
-0.0227449
-0.0227475
-0.0227502
-0.0227529
-0.0227556
-0.0227583
-0.022761
-0.0227638
-0.0227666
-0.0227694
-0.0227722
-0.022775
-0.0227779
-0.0227808
-0.0227837
-0.0227866
-0.0227896
-0.0227926
-0.0227956
-0.0227986
-0.0228016
-0.0228047
-0.0228078
-0.0228109
-0.0228141
-0.0228173
-0.0228204
-0.0228237
-0.0228269
-0.0228302
-0.0228335
-0.0228368
-0.0228401
-0.0228435
-0.0228469
-0.0228503
-0.0228538
-0.0228573
-0.0228608
-0.0228643
-0.0228679
-0.0228715
-0.0228751
-0.0228787
-0.0228824
-0.0228861
-0.0228898
-0.0228936
-0.0228974
-0.0229012
-0.022905
-0.0229089
-0.0229128
-0.0229168
-0.0229207
-0.0229247
-0.0229288
-0.0229328
-0.0229369
-0.022941
-0.0229452
-0.0229494
-0.0229536
-0.0229579
-0.0229622
-0.0229665
-0.0229708
-0.0229752
-0.0229797
-0.0229841
-0.0229886
-0.0229931
-0.0229977
-0.0230023
-0.0230069
-0.0230116
-0.0230163
-0.023021
-0.0230258
-0.0230306
-0.0230355
-0.0230404
-0.0230453
-0.0230503
-0.0214342
-0.021436
-0.0214377
-0.0214395
-0.0214413
-0.0214431
-0.0214449
-0.0214468
-0.0214486
-0.0214505
-0.0214524
-0.0214542
-0.0214562
-0.0214581
-0.02146
-0.021462
-0.0214639
-0.0214659
-0.0214679
-0.0214699
-0.021472
-0.021474
-0.0214761
-0.0214782
-0.0214802
-0.0214824
-0.0214845
-0.0214866
-0.0214888
-0.021491
-0.0214932
-0.0214954
-0.0214976
-0.0214998
-0.0215021
-0.0215044
-0.0215067
-0.021509
-0.0215113
-0.0215137
-0.0215161
-0.0215184
-0.0215209
-0.0215233
-0.0215257
-0.0215282
-0.0215307
-0.0215332
-0.0215357
-0.0215382
-0.0215408
-0.0215434
-0.021546
-0.0215486
-0.0215512
-0.0215539
-0.0215566
-0.0215593
-0.021562
-0.0215648
-0.0215675
-0.0215703
-0.0215731
-0.021576
-0.0215788
-0.0215817
-0.0215846
-0.0215875
-0.0215905
-0.0215934
-0.0215964
-0.0215994
-0.0216025
-0.0216055
-0.0216086
-0.0216117
-0.0216149
-0.021618
-0.0216212
-0.0216244
-0.0216276
-0.0216309
-0.0216342
-0.0216375
-0.0216408
-0.0216442
-0.0216475
-0.021651
-0.0216544
-0.0216579
-0.0216614
-0.0216649
-0.0216684
-0.021672
-0.0216756
-0.0216792
-0.0216829
-0.0216866
-0.0216903
-0.021694
-0.0216978
-0.0217016
-0.0217054
-0.0217093
-0.0217132
-0.0217171
-0.0217211
-0.021725
-0.021729
-0.0217331
-0.0217372
-0.0217413
-0.0217454
-0.0217496
-0.0217538
-0.021758
-0.0217623
-0.0217666
-0.0217709
-0.0217753
-0.0217797
-0.0217842
-0.0217886
-0.0217931
-0.0217977
-0.0218023
-0.0218069
-0.0218115
-0.0218162
-0.0218209
-0.0218257
-0.0218305
-0.0218353
-0.0218402
-0.0218451
-0.02185
-0.021855
-0.0218601
-0.0218651
-0.0218702
-0.0218754
-0.0218805
-0.0218858
-0.021891
-0.0218963
-0.0219017
-0.0219071
-0.0219125
-0.021918
-0.0219235
-0.021929
-0.0219346
-0.0219403
-0.021946
-0.0219517
-0.0219575
-0.0219633
-0.0219692
-0.0219751
-0.021981
-0.021987
-0.0219931
-0.0219992
-0.0220053
-0.0220115
-0.0220178
-0.022024
-0.0220304
-0.0220368
-0.0220432
-0.0220497
-0.0220562
-0.0220628
-0.0220695
-0.0220762
-0.0220829
-0.0220897
-0.0220965
-0.0221034
-0.0221104
-0.0203011
-0.0203034
-0.0203056
-0.0203079
-0.0203102
-0.0203126
-0.0203149
-0.0203173
-0.0203196
-0.020322
-0.0203245
-0.0203269
-0.0203293
-0.0203318
-0.0203343
-0.0203368
-0.0203394
-0.0203419
-0.0203445
-0.0203471
-0.0203497
-0.0203523
-0.020355
-0.0203576
-0.0203603
-0.020363
-0.0203658
-0.0203685
-0.0203713
-0.0203741
-0.0203769
-0.0203798
-0.0203826
-0.0203855
-0.0203884
-0.0203914
-0.0203943
-0.0203973
-0.0204003
-0.0204033
-0.0204064
-0.0204094
-0.0204125
-0.0204156
-0.0204188
-0.020422
-0.0204251
-0.0204284
-0.0204316
-0.0204349
-0.0204382
-0.0204415
-0.0204448
-0.0204482
-0.0204516
-0.020455
-0.0204585
-0.0204619
-0.0204654
-0.020469
-0.0204725
-0.0204761
-0.0204797
-0.0204834
-0.020487
-0.0204907
-0.0204945
-0.0204982
-0.020502
-0.0205058
-0.0205097
-0.0205136
-0.0205175
-0.0205214
-0.0205254
-0.0205294
-0.0205334
-0.0205374
-0.0205415
-0.0205457
-0.0205498
-0.020554
-0.0205582
-0.0205625
-0.0205667
-0.0205711
-0.0205754
-0.0205798
-0.0205842
-0.0205887
-0.0205932
-0.0205977
-0.0206022
-0.0206068
-0.0206115
-0.0206161
-0.0206208
-0.0206256
-0.0206304
-0.0206352
-0.02064
-0.0206449
-0.0206498
-0.0206548
-0.0206598
-0.0206648
-0.0206699
-0.020675
-0.0206802
-0.0206854
-0.0206906
-0.0206959
-0.0207012
-0.0207066
-0.020712
-0.0207175
-0.020723
-0.0207285
-0.0207341
-0.0207397
-0.0207453
-0.0207511
-0.0207568
-0.0207626
-0.0207684
-0.0207743
-0.0207803
-0.0207862
-0.0207923
-0.0207983
-0.0208045
-0.0208106
-0.0208168
-0.0208231
-0.0208294
-0.0208358
-0.0208422
-0.0208486
-0.0208551
-0.0208617
-0.0208683
-0.020875
-0.0208817
-0.0208885
-0.0208953
-0.0209022
-0.0209091
-0.0209161
-0.0209231
-0.0209302
-0.0209373
-0.0209445
-0.0209518
-0.0209591
-0.0209665
-0.0209739
-0.0209814
-0.0209889
-0.0209965
-0.0210042
-0.0210119
-0.0210197
-0.0210275
-0.0210354
-0.0210434
-0.0210514
-0.0210595
-0.0210676
-0.0210758
-0.0210841
-0.0210925
-0.0211009
-0.0211093
-0.0211179
-0.0211265
-0.0211352
-0.0211439
-0.0211527
-0.0211616
-0.0211705
-0.019168
-0.0191708
-0.0191736
-0.0191764
-0.0191792
-0.019182
-0.0191849
-0.0191878
-0.0191907
-0.0191936
-0.0191966
-0.0191995
-0.0192025
-0.0192056
-0.0192086
-0.0192117
-0.0192148
-0.0192179
-0.019221
-0.0192242
-0.0192274
-0.0192306
-0.0192338
-0.0192371
-0.0192404
-0.0192437
-0.019247
-0.0192504
-0.0192538
-0.0192572
-0.0192607
-0.0192642
-0.0192677
-0.0192712
-0.0192747
-0.0192783
-0.0192819
-0.0192856
-0.0192892
-0.0192929
-0.0192967
-0.0193004
-0.0193042
-0.019308
-0.0193118
-0.0193157
-0.0193196
-0.0193236
-0.0193275
-0.0193315
-0.0193355
-0.0193396
-0.0193437
-0.0193478
-0.019352
-0.0193561
-0.0193604
-0.0193646
-0.0193689
-0.0193732
-0.0193775
-0.0193819
-0.0193863
-0.0193908
-0.0193953
-0.0193998
-0.0194044
-0.0194089
-0.0194136
-0.0194182
-0.0194229
-0.0194277
-0.0194324
-0.0194373
-0.0194421
-0.019447
-0.0194519
-0.0194569
-0.0194619
-0.0194669
-0.019472
-0.0194771
-0.0194823
-0.0194875
-0.0194927
-0.019498
-0.0195033
-0.0195086
-0.0195141
-0.0195195
-0.019525
-0.0195305
-0.0195361
-0.0195417
-0.0195474
-0.0195531
-0.0195588
-0.0195646
-0.0195704
-0.0195763
-0.0195822
-0.0195882
-0.0195942
-0.0196003
-0.0196064
-0.0196126
-0.0196188
-0.0196251
-0.0196314
-0.0196377
-0.0196441
-0.0196506
-0.0196571
-0.0196636
-0.0196702
-0.0196769
-0.0196836
-0.0196904
-0.0196972
-0.0197041
-0.019711
-0.019718
-0.019725
-0.0197321
-0.0197392
-0.0197464
-0.0197537
-0.019761
-0.0197683
-0.0197757
-0.0197832
-0.0197908
-0.0197984
-0.019806
-0.0198137
-0.0198215
-0.0198293
-0.0198372
-0.0198452
-0.0198532
-0.0198613
-0.0198694
-0.0198776
-0.0198859
-0.0198942
-0.0199026
-0.0199111
-0.0199196
-0.0199282
-0.0199369
-0.0199456
-0.0199544
-0.0199633
-0.0199722
-0.0199812
-0.0199903
-0.0199995
-0.0200087
-0.020018
-0.0200273
-0.0200368
-0.0200463
-0.0200558
-0.0200655
-0.0200752
-0.020085
-0.0200949
-0.0201049
-0.0201149
-0.020125
-0.0201352
-0.0201455
-0.0201559
-0.0201663
-0.0201768
-0.0201874
-0.0201981
-0.0202088
-0.0202197
-0.0202306
-0.018035
-0.0180382
-0.0180415
-0.0180448
-0.0180481
-0.0180515
-0.0180549
-0.0180583
-0.0180617
-0.0180652
-0.0180687
-0.0180722
-0.0180757
-0.0180793
-0.0180829
-0.0180865
-0.0180902
-0.0180939
-0.0180976
-0.0181013
-0.0181051
-0.0181089
-0.0181127
-0.0181166
-0.0181205
-0.0181244
-0.0181283
-0.0181323
-0.0181363
-0.0181404
-0.0181444
-0.0181485
-0.0181527
-0.0181568
-0.0181611
-0.0181653
-0.0181696
-0.0181739
-0.0181782
-0.0181826
-0.018187
-0.0181914
-0.0181959
-0.0182004
-0.0182049
-0.0182095
-0.0182141
-0.0182187
-0.0182234
-0.0182282
-0.0182329
-0.0182377
-0.0182425
-0.0182474
-0.0182523
-0.0182573
-0.0182622
-0.0182673
-0.0182723
-0.0182774
-0.0182826
-0.0182877
-0.018293
-0.0182982
-0.0183035
-0.0183089
-0.0183142
-0.0183197
-0.0183251
-0.0183306
-0.0183362
-0.0183418
-0.0183474
-0.0183531
-0.0183588
-0.0183646
-0.0183704
-0.0183763
-0.0183822
-0.0183882
-0.0183942
-0.0184002
-0.0184063
-0.0184124
-0.0184186
-0.0184249
-0.0184312
-0.0184375
-0.0184439
-0.0184503
-0.0184568
-0.0184633
-0.0184699
-0.0184766
-0.0184832
-0.01849
-0.0184968
-0.0185036
-0.0185105
-0.0185175
-0.0185245
-0.0185315
-0.0185386
-0.0185458
-0.018553
-0.0185603
-0.0185677
-0.0185751
-0.0185825
-0.01859
-0.0185976
-0.0186052
-0.0186129
-0.0186207
-0.0186285
-0.0186363
-0.0186443
-0.0186523
-0.0186603
-0.0186684
-0.0186766
-0.0186849
-0.0186932
-0.0187015
-0.01871
-0.0187185
-0.018727
-0.0187357
-0.0187444
-0.0187531
-0.018762
-0.0187709
-0.0187799
-0.0187889
-0.018798
-0.0188072
-0.0188165
-0.0188258
-0.0188352
-0.0188447
-0.0188542
-0.0188639
-0.0188736
-0.0188833
-0.0188932
-0.0189031
-0.0189131
-0.0189232
-0.0189334
-0.0189436
-0.0189539
-0.0189643
-0.0189748
-0.0189854
-0.018996
-0.0190067
-0.0190175
-0.0190284
-0.0190394
-0.0190505
-0.0190616
-0.0190729
-0.0190842
-0.0190956
-0.0191071
-0.0191187
-0.0191304
-0.0191421
-0.019154
-0.019166
-0.019178
-0.0191901
-0.0192024
-0.0192147
-0.0192271
-0.0192397
-0.0192523
-0.019265
-0.0192778
-0.0192907
-0.0169019
-0.0169056
-0.0169094
-0.0169132
-0.0169171
-0.0169209
-0.0169248
-0.0169288
-0.0169327
-0.0169367
-0.0169408
-0.0169448
-0.0169489
-0.016953
-0.0169572
-0.0169614
-0.0169656
-0.0169698
-0.0169741
-0.0169784
-0.0169828
-0.0169872
-0.0169916
-0.016996
-0.0170005
-0.0170051
-0.0170096
-0.0170142
-0.0170188
-0.0170235
-0.0170282
-0.0170329
-0.0170377
-0.0170425
-0.0170474
-0.0170523
-0.0170572
-0.0170621
-0.0170671
-0.0170722
-0.0170773
-0.0170824
-0.0170875
-0.0170927
-0.017098
-0.0171033
-0.0171086
-0.0171139
-0.0171193
-0.0171248
-0.0171303
-0.0171358
-0.0171414
-0.017147
-0.0171527
-0.0171584
-0.0171641
-0.0171699
-0.0171757
-0.0171816
-0.0171876
-0.0171935
-0.0171996
-0.0172056
-0.0172117
-0.0172179
-0.0172241
-0.0172304
-0.0172367
-0.0172431
-0.0172495
-0.0172559
-0.0172624
-0.017269
-0.0172756
-0.0172823
-0.017289
-0.0172957
-0.0173025
-0.0173094
-0.0173163
-0.0173233
-0.0173304
-0.0173374
-0.0173446
-0.0173518
-0.017359
-0.0173663
-0.0173737
-0.0173811
-0.0173886
-0.0173962
-0.0174037
-0.0174114
-0.0174191
-0.0174269
-0.0174347
-0.0174426
-0.0174506
-0.0174586
-0.0174667
-0.0174748
-0.0174831
-0.0174913
-0.0174997
-0.0175081
-0.0175165
-0.0175251
-0.0175337
-0.0175423
-0.0175511
-0.0175599
-0.0175687
-0.0175777
-0.0175867
-0.0175958
-0.0176049
-0.0176141
-0.0176234
-0.0176328
-0.0176422
-0.0176518
-0.0176613
-0.017671
-0.0176807
-0.0176905
-0.0177004
-0.0177104
-0.0177204
-0.0177306
-0.0177408
-0.017751
-0.0177614
-0.0177718
-0.0177823
-0.0177929
-0.0178036
-0.0178144
-0.0178252
-0.0178362
-0.0178472
-0.0178583
-0.0178695
-0.0178808
-0.0178921
-0.0179036
-0.0179151
-0.0179268
-0.0179385
-0.0179503
-0.0179622
-0.0179742
-0.0179863
-0.0179985
-0.0180108
-0.0180231
-0.0180356
-0.0180482
-0.0180609
-0.0180736
-0.0180865
-0.0180995
-0.0181125
-0.0181257
-0.018139
-0.0181523
-0.0181658
-0.0181794
-0.0181931
-0.0182069
-0.0182208
-0.0182348
-0.0182489
-0.0182631
-0.0182775
-0.0182919
-0.0183065
-0.0183212
-0.0183359
-0.0183508
-0.0157688
-0.015773
-0.0157773
-0.0157817
-0.015786
-0.0157904
-0.0157948
-0.0157993
-0.0158038
-0.0158083
-0.0158129
-0.0158175
-0.0158221
-0.0158268
-0.0158315
-0.0158362
-0.015841
-0.0158458
-0.0158507
-0.0158556
-0.0158605
-0.0158655
-0.0158705
-0.0158755
-0.0158806
-0.0158857
-0.0158909
-0.0158961
-0.0159013
-0.0159066
-0.015912
-0.0159173
-0.0159227
-0.0159282
-0.0159337
-0.0159392
-0.0159448
-0.0159504
-0.0159561
-0.0159618
-0.0159676
-0.0159734
-0.0159792
-0.0159851
-0.015991
-0.015997
-0.0160031
-0.0160091
-0.0160153
-0.0160214
-0.0160276
-0.0160339
-0.0160402
-0.0160466
-0.016053
-0.0160595
-0.016066
-0.0160726
-0.0160792
-0.0160859
-0.0160926
-0.0160993
-0.0161062
-0.016113
-0.01612
-0.016127
-0.016134
-0.0161411
-0.0161483
-0.0161555
-0.0161627
-0.01617
-0.0161774
-0.0161848
-0.0161923
-0.0161999
-0.0162075
-0.0162152
-0.0162229
-0.0162307
-0.0162385
-0.0162464
-0.0162544
-0.0162624
-0.0162705
-0.0162787
-0.0162869
-0.0162952
-0.0163035
-0.0163119
-0.0163204
-0.016329
-0.0163376
-0.0163463
-0.016355
-0.0163638
-0.0163727
-0.0163817
-0.0163907
-0.0163998
-0.0164089
-0.0164182
-0.0164275
-0.0164368
-0.0164463
-0.0164558
-0.0164654
-0.0164751
-0.0164848
-0.0164947
-0.0165046
-0.0165145
-0.0165246
-0.0165347
-0.0165449
-0.0165552
-0.0165656
-0.016576
-0.0165866
-0.0165972
-0.0166079
-0.0166187
-0.0166295
-0.0166405
-0.0166515
-0.0166626
-0.0166738
-0.0166851
-0.0166965
-0.016708
-0.0167195
-0.0167312
-0.0167429
-0.0167547
-0.0167667
-0.0167787
-0.0167908
-0.016803
-0.0168153
-0.0168277
-0.0168402
-0.0168527
-0.0168654
-0.0168782
-0.0168911
-0.0169041
-0.0169172
-0.0169303
-0.0169436
-0.016957
-0.0169705
-0.0169841
-0.0169978
-0.0170116
-0.0170255
-0.0170396
-0.0170537
-0.0170679
-0.0170823
-0.0170968
-0.0171114
-0.017126
-0.0171409
-0.0171558
-0.0171708
-0.017186
-0.0172013
-0.0172166
-0.0172322
-0.0172478
-0.0172635
-0.0172794
-0.0172954
-0.0173115
-0.0173278
-0.0173442
-0.0173607
-0.0173773
-0.0173941
-0.017411
-0.0146357
-0.0146405
-0.0146453
-0.0146501
-0.014655
-0.0146599
-0.0146648
-0.0146698
-0.0146748
-0.0146799
-0.014685
-0.0146901
-0.0146953
-0.0147005
-0.0147058
-0.0147111
-0.0147164
-0.0147218
-0.0147272
-0.0147327
-0.0147382
-0.0147438
-0.0147493
-0.014755
-0.0147607
-0.0147664
-0.0147722
-0.014778
-0.0147839
-0.0147898
-0.0147957
-0.0148017
-0.0148078
-0.0148139
-0.01482
-0.0148262
-0.0148324
-0.0148387
-0.014845
-0.0148514
-0.0148579
-0.0148643
-0.0148709
-0.0148775
-0.0148841
-0.0148908
-0.0148975
-0.0149043
-0.0149112
-0.0149181
-0.014925
-0.014932
-0.0149391
-0.0149462
-0.0149534
-0.0149606
-0.0149679
-0.0149752
-0.0149826
-0.0149901
-0.0149976
-0.0150051
-0.0150128
-0.0150205
-0.0150282
-0.015036
-0.0150439
-0.0150518
-0.0150598
-0.0150679
-0.015076
-0.0150842
-0.0150924
-0.0151007
-0.0151091
-0.0151175
-0.015126
-0.0151346
-0.0151432
-0.0151519
-0.0151607
-0.0151695
-0.0151784
-0.0151874
-0.0151965
-0.0152056
-0.0152148
-0.015224
-0.0152334
-0.0152428
-0.0152522
-0.0152618
-0.0152714
-0.0152811
-0.0152909
-0.0153007
-0.0153107
-0.0153207
-0.0153308
-0.0153409
-0.0153512
-0.0153615
-0.0153719
-0.0153824
-0.0153929
-0.0154036
-0.0154143
-0.0154251
-0.015436
-0.015447
-0.015458
-0.0154692
-0.0154804
-0.0154917
-0.0155031
-0.0155147
-0.0155262
-0.0155379
-0.0155497
-0.0155616
-0.0155735
-0.0155856
-0.0155977
-0.0156099
-0.0156223
-0.0156347
-0.0156472
-0.0156598
-0.0156726
-0.0156854
-0.0156983
-0.0157113
-0.0157244
-0.0157376
-0.015751
-0.0157644
-0.0157779
-0.0157916
-0.0158053
-0.0158192
-0.0158331
-0.0158472
-0.0158614
-0.0158756
-0.01589
-0.0159046
-0.0159192
-0.0159339
-0.0159488
-0.0159637
-0.0159788
-0.015994
-0.0160093
-0.0160248
-0.0160403
-0.016056
-0.0160718
-0.0160877
-0.0161038
-0.0161199
-0.0161362
-0.0161526
-0.0161692
-0.0161859
-0.0162027
-0.0162196
-0.0162367
-0.0162539
-0.0162712
-0.0162887
-0.0163063
-0.0163241
-0.0163419
-0.01636
-0.0163781
-0.0163964
-0.0164149
-0.0164335
-0.0164522
-0.0164711
-0.0135026
-0.0135079
-0.0135132
-0.0135185
-0.0135239
-0.0135293
-0.0135348
-0.0135403
-0.0135458
-0.0135514
-0.0135571
-0.0135627
-0.0135685
-0.0135742
-0.0135801
-0.0135859
-0.0135918
-0.0135978
-0.0136038
-0.0136098
-0.0136159
-0.013622
-0.0136282
-0.0136345
-0.0136407
-0.0136471
-0.0136535
-0.0136599
-0.0136664
-0.0136729
-0.0136795
-0.0136861
-0.0136928
-0.0136995
-0.0137063
-0.0137132
-0.01372
-0.013727
-0.013734
-0.0137411
-0.0137482
-0.0137553
-0.0137626
-0.0137698
-0.0137772
-0.0137846
-0.013792
-0.0137995
-0.0138071
-0.0138147
-0.0138224
-0.0138301
-0.0138379
-0.0138458
-0.0138537
-0.0138617
-0.0138698
-0.0138779
-0.013886
-0.0138943
-0.0139026
-0.013911
-0.0139194
-0.0139279
-0.0139364
-0.0139451
-0.0139538
-0.0139625
-0.0139714
-0.0139803
-0.0139892
-0.0139983
-0.0140074
-0.0140166
-0.0140258
-0.0140352
-0.0140446
-0.014054
-0.0140636
-0.0140732
-0.0140829
-0.0140926
-0.0141025
-0.0141124
-0.0141224
-0.0141325
-0.0141426
-0.0141529
-0.0141632
-0.0141736
-0.0141841
-0.0141946
-0.0142052
-0.014216
-0.0142268
-0.0142377
-0.0142486
-0.0142597
-0.0142708
-0.0142821
-0.0142934
-0.0143048
-0.0143163
-0.0143279
-0.0143395
-0.0143513
-0.0143632
-0.0143751
-0.0143871
-0.0143993
-0.0144115
-0.0144238
-0.0144362
-0.0144488
-0.0144614
-0.0144741
-0.0144869
-0.0144998
-0.0145128
-0.0145259
-0.0145391
-0.0145525
-0.0145659
-0.0145794
-0.014593
-0.0146068
-0.0146206
-0.0146346
-0.0146486
-0.0146628
-0.0146771
-0.0146914
-0.0147059
-0.0147206
-0.0147353
-0.0147501
-0.0147651
-0.0147802
-0.0147953
-0.0148107
-0.0148261
-0.0148416
-0.0148573
-0.0148731
-0.014889
-0.014905
-0.0149212
-0.0149375
-0.0149539
-0.0149704
-0.0149871
-0.0150039
-0.0150208
-0.0150379
-0.0150551
-0.0150724
-0.0150899
-0.0151075
-0.0151252
-0.0151431
-0.0151611
-0.0151792
-0.0151975
-0.015216
-0.0152345
-0.0152533
-0.0152721
-0.0152911
-0.0153103
-0.0153296
-0.0153491
-0.0153687
-0.0153885
-0.0154084
-0.0154285
-0.0154487
-0.0154691
-0.0154896
-0.0155103
-0.0155312
-0.0123695
-0.0123753
-0.0123811
-0.0123869
-0.0123928
-0.0123988
-0.0124048
-0.0124108
-0.0124169
-0.012423
-0.0124292
-0.0124354
-0.0124417
-0.012448
-0.0124543
-0.0124608
-0.0124672
-0.0124737
-0.0124803
-0.0124869
-0.0124936
-0.0125003
-0.0125071
-0.0125139
-0.0125208
-0.0125277
-0.0125347
-0.0125418
-0.0125489
-0.012556
-0.0125632
-0.0125705
-0.0125778
-0.0125852
-0.0125926
-0.0126001
-0.0126077
-0.0126153
-0.012623
-0.0126307
-0.0126385
-0.0126463
-0.0126542
-0.0126622
-0.0126702
-0.0126783
-0.0126865
-0.0126947
-0.012703
-0.0127113
-0.0127198
-0.0127282
-0.0127368
-0.0127454
-0.0127541
-0.0127628
-0.0127716
-0.0127805
-0.0127895
-0.0127985
-0.0128076
-0.0128168
-0.012826
-0.0128353
-0.0128447
-0.0128541
-0.0128637
-0.0128733
-0.0128829
-0.0128927
-0.0129025
-0.0129124
-0.0129224
-0.0129324
-0.0129426
-0.0129528
-0.0129631
-0.0129735
-0.0129839
-0.0129944
-0.0130051
-0.0130158
-0.0130265
-0.0130374
-0.0130484
-0.0130594
-0.0130705
-0.0130817
-0.013093
-0.0131044
-0.0131159
-0.0131274
-0.0131391
-0.0131508
-0.0131627
-0.0131746
-0.0131866
-0.0131987
-0.0132109
-0.0132232
-0.0132356
-0.0132481
-0.0132607
-0.0132734
-0.0132862
-0.013299
-0.013312
-0.0133251
-0.0133383
-0.0133516
-0.013365
-0.0133785
-0.0133921
-0.0134058
-0.0134196
-0.0134335
-0.0134476
-0.0134617
-0.0134759
-0.0134903
-0.0135048
-0.0135194
-0.0135341
-0.0135489
-0.0135638
-0.0135788
-0.013594
-0.0136093
-0.0136247
-0.0136402
-0.0136558
-0.0136716
-0.0136875
-0.0137035
-0.0137196
-0.0137359
-0.0137522
-0.0137687
-0.0137854
-0.0138021
-0.013819
-0.0138361
-0.0138532
-0.0138705
-0.0138879
-0.0139055
-0.0139232
-0.013941
-0.013959
-0.0139771
-0.0139954
-0.0140138
-0.0140323
-0.014051
-0.0140699
-0.0140888
-0.014108
-0.0141272
-0.0141466
-0.0141662
-0.014186
-0.0142058
-0.0142259
-0.0142461
-0.0142664
-0.0142869
-0.0143076
-0.0143284
-0.0143494
-0.0143705