/*--------------------------------*- C++ -*----------------------------------*\
| =========                 |                                                 |
| \\      /  F ield         | OpenFOAM: The Open Source CFD Toolbox           |
|  \\    /   O peration     | Version:  5.x                                   |
|   \\  /    A nd           | Web:      www.OpenFOAM.org                      |
|    \\/     M anipulation  |                                                 |
\*---------------------------------------------------------------------------*/
FoamFile
{
    version     2.0;
    format      ascii;
    class       volScalarField;
    location    "0";
    object      Cz;
}
// * * * * * * * * * * * * * * * * * * * * * * * * * * * * * * * * * * * * * //

dimensions      [0 1 0 0 0 0 0];

internalField   nonuniform List<scalar> 
12225
(
3.39265e-20
0
1.84045e-20
0
0
0
0
0
0
0
0
0
0
0
0
0
0
0
0
0
1.81929e-20
0
0
-2.97932e-20
0
0
1.21618e-20
0
-3.619e-20
0
0
0
0
0
0
0
0
0
0
0
5.22575e-20
0
0
-9.27559e-21
9.6616e-21
4.17606e-20
3.29533e-20
0
0
0
0
0
-2.82815e-20
0
-2.60402e-20
0
0
0
0
0
0
0
3.65458e-20
-2.88795e-20
4.90272e-20
0
1.03118e-20
3.37286e-20
0
0
-1.36443e-20
0
0
0
0
0
0
0
0
0
3.32759e-20
0
0
0
0
0
0
0
0
0
1.0394e-20
0
0
-2.49986e-20
0
0
-2.80554e-20
0
0
4.6512e-20
-1.71322e-20
0
0
-1.91654e-20
0
-3.02459e-20
0
0
0
-3.09545e-20
0
-3.34565e-20
0
0
0
-2.65796e-20
0
1.51079e-20
0
0
3.22497e-20
3.35291e-20
0
0
0
2.97779e-20
2.48835e-20
0
0
0
0
-3.10932e-20
7.70466e-21
2.40759e-20
0
0
0
0
0
-1.02496e-20
0
-2.37467e-20
3.62555e-20
0
0
0
-3.51708e-20
0
0
0
0
0
3.73355e-20
0
0
0
0
5.57301e-20
2.8962e-20
0
3.12948e-20
0
0
9.23536e-21
2.07452e-20
0
-3.28169e-20
0
0
0
0
0
-4.14952e-20
0
0
2.41021e-20
0
0
0
0
3.11555e-20
0
0
0
0
-9.31942e-21
0
0
0
-3.44168e-20
0
0
0
0
0
0
0
0
-5.36307e-20
0
0
0
0
0
2.49645e-20
0
0
3.91228e-20
-4.06883e-20
-3.21156e-20
0
1.10702e-20
0
1.20107e-20
0
0
0
0
0
0
0
0
3.004e-20
-3.12275e-20
0
0
0
0
0
2.04855e-20
0
0
0
1.11709e-20
0
0
0
0
0
-3.67311e-20
0
-1.42452e-20
0
0
3.02997e-20
0
0
0
0
0
0
0
-8.20916e-21
0
-4.75449e-20
0
0
0
0
0
0
0
0
0
0
-2.09213e-20
0
0
0
0
0
0
3.20465e-20
0
0
0
0
0
4.05112e-20
0
0
0
-3.59421e-20
0
0
0
0
0
0
0
0
0
0
0
1.69152e-20
0
0
0
0
0
3.10261e-20
0
0
0
-2.46723e-20
0
-3.65391e-20
0
5.32748e-20
0
0
-1.61321e-20
0
-1.73748e-20
1.65293e-20
0
0
0
-9.72873e-21
0
0
0
0
0
0
-2.93994e-20
1.6033e-20
0
-1.57615e-20
1.79232e-20
0
0
-3.86129e-20
0
0
-7.63985e-20
0
0
2.52017e-20
0
0
1.33895e-20
3.08114e-20
-1.71606e-20
-1.7812e-20
0
3.68891e-20
3.83616e-20
0
2.14994e-20
0
0
0
0
-1.22574e-20
-2.70409e-20
0
0
0
0
-3.44925e-20
0
0
0
0
0
0
0
0
0
-2.6868e-20
0
0
0
0
0
0
0
0
0
0
0
2.37959e-20
-4.94471e-20
-4.98737e-20
0
0
0
0
0
0
1.75919e-20
0
0
0
0
0
0
0
0
0
0
0
0
0
0
9.49441e-21
0
0
-1.95619e-20
0
0
0
0
-3.65391e-20
0
-6.77229e-20
4.19484e-20
0
-3.07583e-20
-4.87164e-20
3.32437e-20
0
0
0
2.95259e-20
0
1.01336e-20
0
0
2.44101e-20
0
0
0
2.32966e-20
0
0
0
0
0
2.93362e-20
0
-4.17657e-20
0
0
-5.98846e-20
0
0
0
0
0
0
5.19303e-20
0
0
5.82954e-20
0
3.14962e-20
0
0
-3.53985e-20
0
0
2.70409e-20
0
0
0
0
-3.44925e-20
0
-3.8112e-20
6.97385e-20
0
0
-1.07727e-20
0
1.1688e-20
0
0
0
1.52643e-20
0
0
3.26032e-20
0
0
-9.46784e-21
0
0
0
0
1.16088e-20
0
0
-4.08639e-20
0
0
1.63322e-20
0
-3.3678e-20
0
0
0
0
0
-3.47145e-20
-3.60965e-20
3.7536e-20
0
0
0
-2.27123e-20
1.62318e-20
0
0
0
2.75078e-20
3.76179e-20
-2.03133e-20
-4.06861e-20
-2.19112e-20
0
-2.46104e-20
0
-1.44481e-20
0
0
-1.61321e-20
0
0
0
-2.73317e-20
0
0
0
0
0
0
0
0
0
0
0
0
2.80534e-20
1.43041e-20
2.76585e-20
0
1.32583e-20
-2.70775e-20
-1.30669e-20
0
2.651e-20
0
0
-2.59556e-20
-1.25103e-20
3.80132e-20
5.00751e-20
0
3.72135e-20
0
0
0
6.05444e-20
0
3.56693e-20
-3.54189e-20
-1.14725e-20
3.4924e-20
-1.20619e-20
0
0
0
0
0
0
0
-1.14322e-20
2.19593e-20
-2.10554e-20
0
3.18892e-20
-1.03051e-20
-2.12172e-20
0
0
-1.00163e-20
0
0
0
-3.9699e-20
0
9.59981e-21
9.53229e-21
9.4653e-21
0
-9.33289e-21
-2.85555e-20
-9.20255e-21
2.81676e-20
0
0
0
0
0
0
0
4.47106e-20
0
0
2.61402e-20
1.75607e-20
-3.41358e-20
0
0
-3.34495e-20
0
0
-1.67663e-20
3.25595e-20
0
0
1.63318e-20
-7.73605e-21
0
-1.52617e-20
-3.10686e-20
0
0
-6.83349e-20
-3.02534e-20
0
0
0
0
3.63996e-20
0
-2.18544e-20
0
0
-5.66521e-20
0
2.79588e-20
0
-1.34221e-20
2.7419e-20
0
0
0
-1.37363e-20
1.28974e-20
-1.28124e-20
-2.62094e-20
0
-5.17525e-20
0
-1.23976e-20
0
3.74624e-20
2.50668e-20
-1.20777e-20
0
0
0
0
-1.24458e-20
0
-1.22961e-20
1.14688e-20
-4.63352e-20
-2.33989e-20
0
-1.19325e-20
1.11082e-20
3.38669e-20
0
3.34502e-20
0
0
0
0
0
0
1.04307e-20
1.0366e-20
-1.03019e-20
1.02384e-20
0
0
0
-3.07219e-20
0
0
-2.03702e-20
-3.97495e-20
0
0
-2.94756e-20
0
-2.91333e-20
0
-3.81447e-20
0
9.23764e-21
5.66068e-20
2.81418e-20
3.70577e-20
0
0
0
-3.62224e-20
3.60182e-20
-3.58159e-20
0
0
0
0
0
-3.46405e-20
0
0
-2.92075e-20
2.90061e-20
1.36502e-20
0
2.84114e-20
0
-4.12809e-20
-5.41549e-20
0
2.74506e-20
1.43845e-20
0
1.41989e-20
-1.41073e-20
0
0
0
0
0
0
-2.54644e-20
0
-1.18076e-20
1.17229e-20
0
0
0
0
1.28148e-20
0
0
0
-3.44729e-20
0
0
2.30173e-20
0
-2.27122e-20
0
0
0
0
4.24342e-20
0
1.00876e-20
1.00163e-20
-2.13971e-20
0
0
0
0
0
9.53229e-21
0
-9.39883e-21
-9.33289e-21
2.93085e-20
0
0
0
-2.85387e-20
3.7298e-20
0
0
0
2.761e-20
0
3.73357e-20
-2.70702e-20
0
1.83136e-20
0
3.46581e-20
0
0
-1.77417e-20
0
-1.60131e-20
1.74093e-20
-3.30943e-20
0
1.55786e-20
1.69782e-20
0
-3.20295e-20
1.66638e-20
0
2.39345e-20
0
0
-3.08065e-20
0
0
-3.02167e-20
0
0
2.26073e-20
0
2.0819e-20
-1.37864e-20
-4.25888e-20
0
0
-4.17726e-20
0
1.47506e-20
-2.78193e-20
0
0
0
5.42619e-20
0
0
0
0
0
1.23166e-20
1.37426e-20
-6.37961e-20
1.20777e-20
0
0
-1.18447e-20
0
0
0
-2.45917e-20
0
0
1.13227e-20
1.12506e-20
-7.00872e-20
-1.11082e-20
6.92396e-20
0
1.08989e-20
0
0
-6.71818e-20
0
0
2.24981e-20
-2.23677e-20
-1.0366e-20
2.21102e-20
-4.24598e-20
0
2.17321e-20
7.3369e-20
0
-6.25842e-20
0
3.09314e-20
0
4.02671e-20
0
-9.57405e-21
3.00566e-20
-3.93462e-20
0
0
0
0
0
-2.88947e-20
0
1.95527e-20
0
3.71813e-20
2.81081e-20
3.67712e-20
-3.65689e-20
0
0
4.60961e-20
0
0
-1.69434e-20
0
0
-2.92075e-20
0
0
4.21591e-20
4.33701e-20
1.33551e-20
0
-4.09926e-20
0
-2.74506e-20
1.43845e-20
0
0
0
0
0
0
0
3.79664e-20
0
1.19792e-20
0
6.20502e-20
3.66746e-20
2.47835e-20
0
0
2.42866e-20
2.41236e-20
1.27339e-20
6.98977e-20
-2.3642e-20
-1.0989e-20
-3.42378e-20
0
2.15112e-20
0
0
3.30891e-20
3.28648e-20
3.26421e-20
-1.03051e-20
-3.22021e-20
3.19847e-20
-3.1769e-20
-1.00163e-20
3.13426e-20
0
-3.09228e-20
-3.07154e-20
4.01775e-20
3.03055e-20
0
0
0
-9.33289e-21
0
2.91137e-20
9.13815e-21
0
3.75495e-20
2.835e-20
0
0
0
0
0
0
2.70702e-20
2.68931e-20
-1.68075e-20
-2.65431e-20
-2.63701e-20
3.44294e-20
-3.42024e-20
-3.39773e-20
0
-1.75192e-20
1.74093e-20
1.73002e-20
0
0
-1.69782e-20
0
-3.20295e-20
-4.84854e-20
0
0
1.63569e-20
-5.46375e-20
4.69629e-20
0
0
-3.02167e-20
0
-2.98314e-20
0
0
-2.23251e-20
-5.81579e-20
0
-4.23145e-20
0
0
-4.15048e-20
0
0
0
1.29831e-20
4.01983e-20
1.28124e-20
-2.69623e-20
-5.20839e-20
-3.91906e-20
0
0
0
0
1.21567e-20
1.3584e-20
0
0
0
0
3.65836e-20
1.16173e-20
0
1.14688e-20
-1.13955e-20
-2.41518e-20
0
-2.38645e-20
0
0
-1.09681e-20
4.5102e-20
-3.39973e-20
2.30309e-20
-4.42858e-20
-1.0628e-20
0
0
0
0
-1.03019e-20
1.02384e-20
0
-2.17321e-20
0
0
0
3.1111e-20
0
-9.749e-21
9.69018e-21
-3.0402e-20
0
-3.00566e-20
2.98862e-20
2.97173e-20
-3.88977e-20
0
0
-2.90563e-20
0
0
-1.95527e-20
-1.94478e-20
3.86878e-20
2.81081e-20
0
-3.65689e-20
4.65904e-20
1.88382e-20
-8.61662e-21
0
5.2624e-20
3.53934e-20
5.06965e-20
2.94104e-20
0
0
0
0
0
1.48611e-20
0
0
0
2.74506e-20
-1.28785e-20
0
-2.68919e-20
0
0
3.87661e-20
0
0
-2.5813e-20
0
0
0
0
0
4.9567e-20
-2.46166e-20
7.18468e-20
3.56769e-20
0
-1.12279e-20
0
0
0
-1.09106e-20
1.08328e-20
0
-1.21851e-20
-2.27122e-20
0
0
3.26421e-20
0
-3.22021e-20
3.19847e-20
0
-3.15549e-20
0
1.13813e-20
0
0
0
0
9.53229e-21
0
0
-3.88376e-20
2.0041e-20
2.91137e-20
0
0
-3.75495e-20
0
0
0
1.90306e-20
-8.70131e-21
1.87878e-20
0
0
2.68931e-20
0
0
3.46581e-20
1.79677e-20
0
0
0
-2.55257e-20
3.33124e-20
0
0
-1.70847e-20
0
7.21613e-20
0
0
7.52728e-21
3.88868e-20
0
0
0
0
-7.2264e-21
-3.02167e-20
1.57647e-20
0
0
-3.64386e-20
0
0
0
-1.5109e-20
0
-1.49283e-20
0
6.92342e-20
0
2.76451e-20
0
0
0
0
2.6795e-20
-2.66291e-20
-3.89438e-20
-6.50003e-20
1.23166e-20
0
-1.21567e-20
2.56617e-20
0
0
0
0
-2.48912e-20
0
0
0
0
0
1.12506e-20
-3.50436e-20
0
0
3.44106e-20
3.42031e-20
5.71643e-20
0
-6.71818e-20
-1.0628e-20
0
3.2994e-20
0
0
1.18083e-20
0
1.01753e-20
2.17321e-20
3.16591e-20
0
0
0
0
0
-2.08868e-20
0
0
0
0
2.03137e-20
-3.88977e-20
2.93839e-20
9.23764e-21
0
0
0
1.95527e-20
0
3.71813e-20
0
-3.67712e-20
0
-1.7431e-20
-8.66582e-21
2.73564e-20
0
3.55848e-20
-3.53934e-20
-4.29164e-20
-2.94104e-20
2.92075e-20
0
0
4.36651e-20
2.84114e-20
1.48611e-20
0
0
-1.30669e-20
0
0
0
-2.68919e-20
-1.41073e-20
0
0
0
-2.59893e-20
-6.37794e-20
-3.921e-20
0
1.18931e-20
3.69289e-20
-1.17229e-20
3.64222e-20
0
0
3.56769e-20
1.28148e-20
0
0
0
-1.0989e-20
-3.42378e-20
-2.31716e-20
-3.37729e-20
0
-2.12061e-20
-2.10554e-20
3.28648e-20
0
0
-2.19701e-20
0
2.16813e-20
0
0
0
0
0
0
-3.03055e-20
0
0
-9.39883e-21
-9.33289e-21
0
-1.84051e-20
0
0
0
-1.9402e-20
0
0
0
-2.761e-20
-1.87878e-20
0
-2.70702e-20
0
1.83136e-20
8.34566e-21
0
0
1.63482e-20
0
0
0
3.33124e-20
-1.73002e-20
0
1.70847e-20
0
0
0
-4.84854e-20
-3.16153e-20
0
3.8633e-20
-3.10063e-20
0
-1.45511e-20
-7.2264e-21
-3.02167e-20
0
0
0
2.94521e-20
-2.0819e-20
4.28653e-20
0
0
1.50183e-20
0
0
0
2.78193e-20
0
0
0
3.99433e-20
0
0
-3.91906e-20
0
0
1.23166e-20
0
-2.58197e-20
1.20777e-20
7.5009e-20
0
6.22358e-20
-3.6811e-20
0
0
-1.3049e-20
0
-2.42972e-20
0
-3.52582e-20
1.11791e-20
-1.11082e-20
0
1.09681e-20
2.33042e-20
0
-3.37932e-20
0
0
0
2.24981e-20
0
1.0366e-20
0
0
-1.01753e-20
0
3.16591e-20
3.14748e-20
2.13635e-20
2.12428e-20
3.09314e-20
-4.05024e-20
0
2.07701e-20
-3.02286e-20
-3.00566e-20
0
-2.97173e-20
0
0
0
2.90563e-20
-3.80241e-20
0
0
8.97067e-21
3.86878e-20
0
-1.91388e-20
3.65689e-20
-1.89375e-20
-3.61698e-20
0
0
0
1.845e-20
0
0
-2.92075e-20
-2.90061e-20
2.88063e-20
4.21591e-20
2.84114e-20
0
0
0
0
0
6.74043e-20
0
0
0
0
0
0
0
3.79664e-20
-2.5638e-20
1.19792e-20
0
3.69289e-20
1.17229e-20
0
-4.92331e-20
1.14725e-20
2.42866e-20
1.28148e-20
0
0
1.1068e-20
-1.2495e-20
0
0
2.30173e-20
0
0
0
0
3.26421e-20
0
0
3.19847e-20
-1.00876e-20
0
0
2.12566e-20
0
-3.07154e-20
4.01775e-20
0
9.53229e-21
0
0
0
-4.78434e-20
0
0
-1.96546e-20
1.95278e-20
-1.9402e-20
0
0
1.75245e-20
0
0
-1.71617e-20
0
2.68931e-20
-1.83136e-20
-4.32344e-20
0
0
0
0
0
0
0
0
-2.5035e-20
1.70847e-20
0
0
-1.52617e-20
1.66638e-20
0
0
0
0
-2.34814e-20
0
0
-2.30391e-20
-1.57647e-20
0
-2.26073e-20
0
-1.38793e-20
-1.52926e-20
-2.88946e-20
1.5109e-20
0
0
1.33329e-20
-2.79949e-20
0
2.76451e-20
0
0
1.28124e-20
0
-1.41506e-20
3.91906e-20
0
1.23976e-20
0
0
-6.37961e-20
-3.77395e-20
0
0
0
0
1.16924e-20
0
7.22689e-20
-1.29751e-20
0
-2.41518e-20
1.12506e-20
1.11791e-20
-1.11082e-20
6.92396e-20
0
3.42031e-20
0
0
-3.35909e-20
1.0628e-20
0
1.04959e-20
0
0
0
-3.22215e-20
1.01753e-20
1.01129e-20
1.00509e-20
-3.14748e-20
3.12921e-20
2.12428e-20
-3.09314e-20
-3.07534e-20
9.69018e-21
0
-3.02286e-20
9.51674e-21
-3.93462e-20
0
-3.88977e-20
0
9.23764e-21
0
0
0
3.75989e-20
0
0
2.81081e-20
0
1.90377e-20
-1.89375e-20
3.61698e-20
0
3.5778e-20
0
0
-2.88619e-20
-2.24343e-20
0
0
0
-2.86081e-20
0
2.82162e-20
0
0
-1.30669e-20
0
0
0
-2.68919e-20
5.34171e-20
0
-2.63461e-20
7.6995e-20
0
3.79664e-20
0
1.19792e-20
0
0
1.32289e-20
4.9567e-20
-2.46166e-20
0
7.13538e-20
-1.13088e-20
0
0
0
0
0
0
3.37729e-20
-1.21851e-20
0
-2.10554e-20
-2.24119e-20
0
0
0
0
-4.18566e-20
0
-2.13971e-20
0
0
-4.04519e-20
-9.66787e-21
0
-9.53229e-21
0
0
0
0
2.91137e-20
9.13815e-21
0
0
0
0
0
1.75245e-20
2.761e-20
-1.87878e-20
0
0
3.53554e-20
0
8.34566e-21
-1.80821e-20
0
0
2.58595e-20
0
0
0
0
2.5035e-20
-2.4874e-20
3.24503e-20
-7.21613e-20
0
-3.18215e-20
-3.16153e-20
0
0
0
-2.34814e-20
0
0
0
3.71525e-20
0
0
0
2.0819e-20
0
0
2.87118e-20
0
0
0
4.12393e-20
2.78193e-20
0
0
-4.01983e-20
1.28124e-20
0
0
-3.91906e-20
7.78876e-20
-6.50003e-20
-5.2279e-20
1.37426e-20
3.79764e-20
1.20777e-20
0
0
3.70402e-20
1.17682e-20
1.16924e-20
0
1.3049e-20
-1.29751e-20
1.13955e-20
-2.41518e-20
0
-2.38645e-20
0
0
2.34425e-20
0
0
-1.07623e-20
3.35909e-20
0
0
0
0
0
3.24121e-20
0
-3.20324e-20
3.18449e-20
0
2.14853e-20
-2.13635e-20
2.12428e-20
0
0
1.11966e-20
0
-3.02286e-20
3.95734e-20
-9.45993e-21
-2.97173e-20
-2.95499e-20
2.93839e-20
9.23764e-21
3.82396e-20
0
0
0
0
0
2.81081e-20
2.7955e-20
0
-1.89375e-20
0
-8.61662e-21
1.86423e-20
1.70391e-20
5.38434e-20
-4.29164e-20
0
0
0
0
0
1.34527e-20
0
0
2.63244e-20
0
-2.74506e-20
0
-5.26473e-20
0
0
0
2.48401e-20
0
0
0
0
0
1.18931e-20
2.51213e-20
0
3.64222e-20
-1.15553e-20
-2.44509e-20
0
1.28148e-20
-1.12279e-20
0
-2.3642e-20
-1.0989e-20
6.84755e-20
-3.40044e-20
0
0
0
3.30891e-20
0
0
2.21162e-20
0
0
0
3.15549e-20
0
0
-2.11173e-20
0
3.05097e-20
0
0
0
0
0
0
0
0
0
-3.75495e-20
0
0
3.68007e-20
1.02683e-20
-1.89087e-20
0
3.58296e-20
0
0
0
3.48887e-20
8.28801e-21
-1.79677e-20
0
0
0
0
3.33124e-20
3.30943e-20
0
1.70847e-20
3.24503e-20
0
3.20295e-20
0
-3.16153e-20
-3.14107e-20
0
0
0
0
3.04118e-20
0
3.00233e-20
0
-4.37084e-20
0
-1.38793e-20
0
0
0
4.20425e-20
1.49283e-20
0
6.92342e-20
0
5.52902e-20
2.74723e-20
-6.74992e-20
5.42619e-20
0
2.6795e-20
-2.66291e-20
2.64646e-20
0
0
0
0
2.56617e-20
0
-2.53497e-20
3.70402e-20
-1.17682e-20
0
0
0
0
0
0
-3.52582e-20
-2.38645e-20
0
0
1.09681e-20
0
1.23366e-20
0
-6.71818e-20
-1.0628e-20
0
0
-3.27984e-20
0
1.18083e-20
2.19831e-20
0
-2.17321e-20
0
0
2.13635e-20
-3.1111e-20
3.09314e-20
0
-9.69018e-21
0
-9.57405e-21
0
0
2.97173e-20
0
0
0
0
0
9.07603e-21
1.95527e-20
-1.94478e-20
0
2.81081e-20
-1.91388e-20
-1.75312e-20
-3.63684e-20
0
-1.87398e-20
-1.86423e-20
0
3.53934e-20
0
0
0
-2.90061e-20
0
0
0
-1.48611e-20
0
0
0
-1.44783e-20
1.28785e-20
0
3.95848e-20
0
0
0
-2.6167e-20
0
0
0
0
1.18931e-20
0
0
4.8061e-20
0
0
3.56769e-20
0
0
0
0
-3.44729e-20
0
0
0
0
-6.66305e-20
0
0
0
0
-2.19701e-20
0
-1.00876e-20
-3.15549e-20
3.13426e-20
-9.87528e-21
3.09228e-20
3.07154e-20
0
0
-3.96352e-20
0
0
-3.88376e-20
-2.93085e-20
-2.91137e-20
0
-9.07425e-21
2.85387e-20
3.7298e-20
0
3.68007e-20
3.65551e-20
1.89087e-20
-1.87878e-20
-4.59166e-20
2.70702e-20
-1.84308e-20
0
0
-2.63701e-20
0
-3.42024e-20
0
0
0
3.33124e-20
0
-4.07209e-20
0
-3.24503e-20
0
0
0
0
0
0
-7.37503e-21
-3.08065e-20
3.78839e-20
5.20909e-20
0
0
0
0
0
1.38793e-20
0
0
-2.87118e-20
-4.20425e-20
0
0
-5.59898e-20
0
1.45757e-20
0
-1.28974e-20
2.71309e-20
-2.69623e-20
-2.6795e-20
-3.91906e-20
7.78876e-20
2.47951e-20
0
0
-3.79764e-20
1.20777e-20
7.5009e-20
7.45428e-20
0
-1.17682e-20
0
-7.27162e-20
-1.3049e-20
-2.44439e-20
0
0
-3.52582e-20
1.11791e-20
1.11082e-20
2.3582e-20
1.09681e-20
4.5102e-20
0
-4.45556e-20
6.71818e-20
4.40182e-20
-3.31913e-20
0
-3.27984e-20
0
-1.03019e-20
0
0
0
7.3369e-20
-9.98947e-21
0
0
5.20545e-20
9.749e-21
-9.69018e-21
4.00339e-20
0
3.00566e-20
-2.98862e-20
0
0
2.00914e-20
0
2.90563e-20
-3.80241e-20
-9.07603e-21
0
-2.84185e-20
0
2.81081e-20
0
0
-1.89375e-20
-3.61698e-20
2.73564e-20
0
0
3.53934e-20
0
-2.94104e-20
0
-1.52561e-20
2.88063e-20
-1.5057e-20
0
0
-1.47643e-20
0
0
0
0
-3.9862e-20
-1.26929e-20
1.41073e-20
-5.30532e-20
0
0
0
-6.37794e-20
0
0
0
0
0
3.64222e-20
-2.46166e-20
1.14725e-20
1.13903e-20
0
1.12279e-20
0
-1.2574e-20
-3.44729e-20
0
-3.40044e-20
0
0
0
0
0
0
0
-6.44043e-20
0
3.1769e-20
0
-9.94551e-21
2.12566e-20
0
-4.04519e-20
0
0
3.01029e-20
0
-9.39883e-21
3.88376e-20
0
0
0
2.87288e-20
0
0
0
1.91534e-20
0
-1.89087e-20
1.87878e-20
8.58087e-21
0
1.69247e-20
1.83136e-20
2.5037e-20
0
0
-3.42024e-20
2.58595e-20
0
-6.70646e-20
0
3.30943e-20
0
-4.04526e-20
2.47143e-20
0
0
2.42427e-20
-7.07578e-20
3.88868e-20
0
-3.10063e-20
0
0
-2.31854e-20
0
-3.00233e-20
1.56688e-20
0
0
2.23251e-20
-1.52926e-20
0
1.5109e-20
0
0
-6.96768e-20
-1.47506e-20
0
0
0
0
3.99433e-20
0
0
0
0
7.73979e-20
-2.61395e-20
0
3.79764e-20
0
1.19994e-20
0
-1.18447e-20
0
0
0
0
0
0
1.13227e-20
1.12506e-20
0
0
0
4.53787e-20
0
0
1.07623e-20
0
-1.0628e-20
-2.26297e-20
-3.2994e-20
-1.04307e-20
0
-1.03019e-20
0
-3.20324e-20
0
1.15573e-20
0
-2.13635e-20
3.1111e-20
-2.11231e-20
3.07534e-20
0
-9.63186e-21
0
0
0
0
-9.34781e-21
0
9.23764e-21
0
0
0
0
0
0
8.8672e-21
1.91388e-20
-3.65689e-20
0
1.88382e-20
0
-1.86423e-20
0
1.69434e-20
4.29164e-20
0
0
0
-4.24565e-20
0
4.18641e-20
-2.82162e-20
0
0
0
-2.74506e-20
0
0
0
-3.93098e-20
1.40163e-20
0
-4.00035e-20
0
0
0
-1.19792e-20
1.18931e-20
3.69289e-20
1.17229e-20
3.64222e-20
-1.15553e-20
2.44509e-20
3.56769e-20
2.41236e-20
-1.12279e-20
0
0
2.3484e-20
0
2.31716e-20
0
-3.35432e-20
0
2.25614e-20
0
-3.26421e-20
3.24213e-20
-3.22021e-20
0
-4.18566e-20
-1.00163e-20
0
2.12566e-20
9.8056e-21
2.0979e-20
0
0
0
5.98039e-20
0
0
-2.93085e-20
-2.91137e-20
-1.97824e-20
2.87288e-20
2.85387e-20
0
0
0
-1.90306e-20
0
0
0
0
2.68931e-20
3.51212e-20
-3.48887e-20
0
1.79677e-20
-1.78543e-20
-3.39773e-20
-3.37539e-20
2.55257e-20
0
0
1.7192e-20
0
1.69782e-20
0
0
-3.18215e-20
-3.16153e-20
0
0
0
3.08065e-20
-3.93901e-20
-3.04118e-20
2.30391e-20
-3.00233e-20
-2.98314e-20
0
-2.94521e-20
-1.53855e-20
0
-2.88946e-20
-1.5109e-20
-2.85304e-20
-1.49283e-20
-1.48391e-20
2.79949e-20
1.31565e-20
-2.76451e-20
0
0
0
0
2.6795e-20
0
5.29292e-20
1.23976e-20
-5.2279e-20
-1.22363e-20
0
0
-2.55051e-20
2.53497e-20
-1.18447e-20
0
-1.31987e-20
1.16173e-20
0
0
-1.13955e-20
1.13227e-20
4.65088e-20
0
0
0
0
-1.08989e-20
0
2.30309e-20
6.71818e-20
1.0628e-20
0
0
0
4.29705e-20
1.03019e-20
-3.22215e-20
0
1.01129e-20
3.16591e-20
0
0
9.8682e-21
0
0
0
-9.63186e-21
-2.06545e-20
0
0
2.97173e-20
0
0
0
0
0
0
0
0
3.86878e-20
0
0
0
0
-1.88382e-20
-2.73564e-20
0
0
3.53934e-20
0
0
0
-5.80123e-20
0
4.21591e-20
-5.68228e-20
0
0
0
-2.76398e-20
0
-1.28785e-20
3.9862e-20
0
0
0
0
0
1.37476e-20
3.79664e-20
0
-2.54644e-20
0
2.51213e-20
0
0
0
1.14725e-20
-5.99635e-20
-3.54323e-20
-2.39618e-20
0
1.1068e-20
2.3484e-20
-2.33272e-20
5.7176e-20
2.30173e-20
-2.28641e-20
0
-3.30891e-20
0
0
0
-3.22021e-20
0
0
-3.15549e-20
2.13971e-20
0
0
-3.07154e-20
3.05097e-20
0
0
0
-9.39883e-21
-1.86658e-20
-2.93085e-20
-2.91137e-20
9.13815e-21
-2.87288e-20
0
0
0
1.91534e-20
1.75245e-20
0
1.87878e-20
-1.71617e-20
0
2.68931e-20
5.34348e-20
0
-1.80821e-20
0
-5.20567e-20
0
0
0
-3.33124e-20
0
1.56859e-20
0
0
0
0
-3.18215e-20
3.16153e-20
0
0
0
-3.08065e-20
0
0
0
-3.00233e-20
0
-2.9641e-20
-2.94521e-20
-2.23251e-20
1.37864e-20
0
-1.5109e-20
0
0
1.33329e-20
1.32444e-20
0
-2.76451e-20
0
0
3.99433e-20
2.69623e-20
0
2.66291e-20
7.78876e-20
0
-1.38229e-20
1.22363e-20
0
0
0
0
0
0
0
0
-2.45917e-20
0
1.13955e-20
-2.41518e-20
-5.92657e-20
-2.38645e-20
-2.37227e-20
0
3.44106e-20
4.5102e-20
-3.39973e-20
1.07623e-20
2.2896e-20
-1.0628e-20
-3.31913e-20
0
0
0
3.24121e-20
2.19831e-20
-2.1857e-20
0
-1.00509e-20
-2.14853e-20
9.92858e-21
0
-3.09314e-20
3.07534e-20
0
9.63186e-21
3.98026e-20
0
-2.98862e-20
0
0
9.29248e-21
0
0
2.88947e-20
-3.78106e-20
3.75989e-20
0
3.71813e-20
-1.92409e-20
-4.70938e-20
-2.78033e-20
-8.71548e-21
0
0
-7.30625e-20
0
0
0
0
0
4.27562e-20
-1.36502e-20
4.21591e-20
0
0
-2.80226e-20
-2.78304e-20
0
-2.74506e-20
0
0
-1.41989e-20
1.26013e-20
0
-2.63461e-20
-4.00035e-20
0
-2.5813e-20
0
0
0
3.69289e-20
2.49517e-20
2.47835e-20
1.15553e-20
4.89019e-20
-5.99635e-20
0
0
0
0
0
-3.42378e-20
-2.31716e-20
1.07556e-20
0
0
4.36168e-20
0
0
0
0
1.01596e-20
0
-4.15712e-20
-2.13971e-20
2.12566e-20
0
9.73646e-21
0
0
-3.96352e-20
-5.03386e-20
-3.91014e-20
9.33289e-21
0
0
5.7841e-20
2.87288e-20
0
0
0
-2.79771e-20
1.75245e-20
0
0
1.86678e-20
1.85488e-20
3.53554e-20
0
-3.48887e-20
-4.29462e-20
1.79677e-20
-1.78543e-20
-1.77417e-20
0
-3.35323e-20
0
1.73002e-20
1.56859e-20
-3.26633e-20
1.69782e-20
0
-1.67678e-20
0
0
-3.88868e-20
-2.37823e-20
0
0
0
-3.76382e-20
-3.02167e-20
-2.2894e-20
7.0813e-21
3.66747e-20
0
-2.23251e-20
0
0
1.5109e-20
0
-1.49283e-20
-1.48391e-20
2.79949e-20
0
4.07146e-20
0
0
-2.71309e-20
0
3.94395e-20
2.66291e-20
2.64646e-20
-3.8699e-20
0
0
-3.79764e-20
2.56617e-20
0
-3.72714e-20
0
0
1.16924e-20
0
-2.30854e-20
1.14688e-20
0
1.13227e-20
4.65088e-20
0
0
1.10378e-20
3.44106e-20
3.42031e-20
3.39973e-20
-3.37932e-20
-1.22012e-20
-1.0628e-20
3.31913e-20
1.04959e-20
-3.27984e-20
0
0
3.22215e-20
3.20324e-20
1.01129e-20
0
-5.29601e-20
0
2.12428e-20
0
-2.10044e-20
-3.05769e-20
-3.0402e-20
-3.02286e-20
-1.10232e-20
0
2.97173e-20
2.95499e-20
9.29248e-21
9.23764e-21
2.90563e-20
0
0
0
2.84185e-20
3.71813e-20
2.81081e-20
-3.67712e-20
-1.90377e-20
0
0
2.73564e-20
5.44203e-20
3.55848e-20
0
0
2.94104e-20
1.38507e-20
-2.90061e-20
0
0
-5.68228e-20
0
0
-1.31622e-20
-4.07067e-20
0
0
0
0
1.26013e-20
0
5.26922e-20
1.38365e-20
-1.37476e-20
0
5.1276e-20
0
0
0
-3.66746e-20
1.16387e-20
1.15553e-20
0
-1.28963e-20
0
2.39618e-20
-2.38013e-20
1.1068e-20
0
-5.75649e-20
-2.31716e-20
2.30173e-20
0
0
0
0
-1.03787e-20
2.21162e-20
0
0
3.1769e-20
0
-9.94551e-21
0
0
0
0
0
-3.01029e-20
0
-2.97026e-20
0
-3.85759e-20
-2.91137e-20
9.13815e-21
2.87288e-20
0
-3.7298e-20
-2.81628e-20
0
0
2.761e-20
0
1.86678e-20
0
0
5.34348e-20
8.34566e-21
0
1.79677e-20
-1.78543e-20
0
0
0
0
0
0
0
-1.54721e-20
3.2239e-20
3.20295e-20
-3.18215e-20
0
3.14107e-20
1.48508e-20
-2.36313e-20
-3.08065e-20
7.27555e-21
0
0
-3.00233e-20
-2.98314e-20
0
0
2.23251e-20
0
-2.88946e-20
0
0
0
0
-6.92342e-20
-1.31565e-20
0
-1.44893e-20
0
3.99433e-20
0
0
0
-3.89438e-20
-1.39038e-20
-6.45956e-20
0
2.58197e-20
2.56617e-20
0
0
-1.18447e-20
3.6811e-20
0
0
0
0
0
0
1.12506e-20
0
0
-6.92396e-20
1.09681e-20
0
2.3167e-20
0
-5.6487e-20
-1.0628e-20
0
0
1.04307e-20
0
-3.24121e-20
0
-2.1857e-20
3.18449e-20
-2.16082e-20
0
9.92858e-21
-9.8682e-21
0
-3.07534e-20
-9.69018e-21
3.0402e-20
3.98026e-20
0
0
0
0
0
0
-2.90563e-20
3.80241e-20
-6.65451e-20
3.75989e-20
8.97067e-21
0
2.81081e-20
0
0
0
0
-2.73564e-20
0
3.55848e-20
-1.69434e-20
0
1.39522e-20
-1.38507e-20
-2.90061e-20
-4.24565e-20
0
0
1.33551e-20
-2.80226e-20
-1.31622e-20
-2.76398e-20
0
-1.28785e-20
-3.9862e-20
3.95848e-20
-1.41073e-20
0
-3.87661e-20
0
0
-3.79664e-20
0
1.34852e-20
3.71853e-20
0
1.17229e-20
3.64222e-20
1.15553e-20
0
0
1.28148e-20
-5.91514e-20
0
-2.3642e-20
-2.3484e-20
0
-3.40044e-20
0
0
0
0
3.28648e-20
0
2.21162e-20
3.22021e-20
0
1.00876e-20
-3.15549e-20
-3.13426e-20
0
-9.8056e-21
-2.0979e-20
6.10193e-20
0
0
0
2.97026e-20
2.01718e-20
-2.93085e-20
1.99112e-20
0
0
0
-1.9402e-20
0
0
-1.90306e-20
0
-2.74287e-20
3.58296e-20
3.70977e-20
-2.68931e-20
6.18385e-20
-5.30861e-20
-3.46581e-20
0
0
0
0
-1.75192e-20
-7.95157e-21
0
0
0
0
-7.68323e-21
0
1.66638e-20
0
3.88868e-20
-7.42538e-21
-3.10063e-20
0
0
0
-2.30391e-20
-3.00233e-20
0
-2.9641e-20
0
0
0
0
0
0
0
6.96768e-20
0
2.78193e-20
0
-2.74723e-20
0
0
0
1.41506e-20
-5.32583e-20
0
-2.63014e-20
0
1.22363e-20
0
-3.77395e-20
1.19994e-20
0
0
-3.6811e-20
1.31987e-20
-7.27162e-20
1.3049e-20
-1.29751e-20
0
-3.54745e-20
0
-1.26854e-20
-3.48308e-20
0
0
-5.75072e-20
0
-3.37932e-20
-1.22012e-20
-2.27623e-20
0
0
3.27984e-20
-1.0366e-20
-1.03019e-20
0
-2.1857e-20
-3.18449e-20
0
9.98947e-21
9.92858e-21
0
9.80834e-21
0
0
0
-3.02286e-20
-3.00566e-20
-2.98862e-20
2.97173e-20
0
-2.93839e-20
0
0
0
0
0
0
0
0
-1.91388e-20
3.65689e-20
0
0
-2.73564e-20
2.72101e-20
0
3.53934e-20
-1.48074e-20
0
0
0
0
-2.86081e-20
0
-1.33551e-20
-1.32583e-20
-2.78304e-20
0
0
-1.28785e-20
-1.27853e-20
-5.22778e-20
1.41073e-20
0
-2.63461e-20
1.23305e-20
-1.37476e-20
3.79664e-20
1.2066e-20
0
-2.52922e-20
0
-1.17229e-20
2.47835e-20
0
0
-3.56769e-20
-3.54323e-20
0
0
-2.3642e-20
0
1.09106e-20
-4.48372e-20
-5.67902e-20
0
-2.27122e-20
2.25614e-20
0
0
-3.24213e-20
0
0
1.15937e-20
0
-3.13426e-20
-3.11319e-20
6.18457e-20
0
-9.66787e-21
0
-3.01029e-20
0
2.97026e-20
0
0
2.91137e-20
0
0
0
0
3.70484e-20
0
-1.90306e-20
3.63113e-20
0
-4.44105e-20
-1.70427e-20
0
0
-1.81974e-20
0
2.46924e-20
0
0
1.61239e-20
3.35323e-20
0
0
1.7192e-20
0
3.24503e-20
-4.91116e-20
-7.63083e-21
1.51577e-20
0
0
0
-1.62562e-20
0
-3.06083e-20
6.08235e-20
0
0
1.56688e-20
2.9641e-20
0
0
-2.9079e-20
-2.88946e-20
0
0
0
-1.48391e-20
-2.79949e-20
0
0
0
1.44036e-20
-3.99433e-20
0
0
0
0
0
5.2279e-20
-1.22363e-20
3.79764e-20
0
-2.39988e-20
-1.19217e-20
-2.51956e-20
-1.17682e-20
0
0
3.61344e-20
0
3.56927e-20
0
0
0
0
2.3582e-20
1.24744e-20
4.5102e-20
-3.39973e-20
3.37932e-20
0
2.27623e-20
3.31913e-20
-2.24981e-20
2.23677e-20
0
3.24121e-20
-3.22215e-20
-6.40648e-20
1.01129e-20
0
-9.98947e-21
3.12921e-20
0
0
9.749e-21
0
-4.00339e-20
-9.57405e-21
3.00566e-20
9.45993e-21
-2.03137e-20
0
-2.00914e-20
0
0
0
-2.87346e-20
1.95527e-20
0
3.86878e-20
2.81081e-20
1.76323e-20
-3.65689e-20
0
-8.66582e-21
0
0
-2.70652e-20
0
0
2.09283e-20
1.53567e-20
1.52561e-20
0
2.86081e-20
0
0
0
1.46682e-20
2.76398e-20
-2.74506e-20
0
-1.27853e-20
2.68919e-20
4.08158e-20
0
-5.26922e-20
0
3.82309e-20
5.01199e-20
0
6.29081e-20
6.24775e-20
-3.69289e-20
-4.99035e-20
6.12057e-20
1.15553e-20
0
-3.56769e-20
0
0
-3.49489e-20
-2.3642e-20
0
0
-4.48372e-20
6.75458e-20
3.35432e-20
0
-2.25614e-20
0
2.22634e-20
0
0
0
-4.18566e-20
1.00163e-20
0
-3.11319e-20
9.8056e-21
2.0979e-20
0
-3.03055e-20
-9.53229e-21
0
0
3.88376e-20
0
0
5.7841e-20
-3.78031e-20
0
1.9402e-20
0
-2.79771e-20
1.90306e-20
0
0
0
0
0
0
-1.66913e-20
3.46581e-20
-3.44294e-20
-3.42024e-20
0
1.763e-20
8.00654e-21
3.33124e-20
0
-2.35289e-20
2.33679e-20
0
-2.45558e-20
-1.67678e-20
7.57885e-21
0
-3.14107e-20
0
0
-1.46502e-20
0
0
3.02167e-20
-3.00233e-20
-2.27501e-20
-1.55736e-20
0
2.23251e-20
-4.28653e-20
0
0
-1.35121e-20
0
4.15048e-20
-6.92342e-20
0
0
0
4.01983e-20
2.71309e-20
0
-2.6795e-20
0
-5.29292e-20
2.63014e-20
-2.61395e-20
0
5.16394e-20
0
0
-2.53497e-20
0
-1.17682e-20
0
-1.31235e-20
2.45917e-20
0
0
0
2.40075e-20
0
0
-2.3582e-20
0
3.42031e-20
0
0
-1.06949e-20
-3.33903e-20
3.31913e-20
-3.2994e-20
-2.23677e-20
0
-5.45224e-20
0
0
3.18449e-20
1.00509e-20
0
0
2.12428e-20
2.11231e-20
0
0
0
9.57405e-21
0
1.89199e-20
0
-4.97519e-20
-9.29248e-21
-2.92194e-20
-4.89294e-20
0
0
-2.85758e-20
-1.94478e-20
-1.93439e-20
0
0
0
0
3.61698e-20
0
-1.86423e-20
0
0
0
2.94104e-20
0
2.90061e-20
1.50599e-21
-1.35511e-20
0
-1.33551e-20
0
0
0
2.74506e-20
0
0
0
2.67085e-20
0
3.87661e-20
0
-1.22416e-20
3.79664e-20
2.5638e-20
-2.54644e-20
3.71853e-20
0
0
0
-1.30613e-20
-1.14725e-20
0
-3.54323e-20
0
0
-1.1068e-20
0
0
0
1.07556e-20
-2.28641e-20
2.27122e-20
0
0
2.22634e-20
0
-1.0232e-20
-3.19847e-20
0
1.00163e-20
0
0
3.09228e-20
-1.94729e-20
0
-9.59981e-21
0
0
-2.03037e-20
-5.90095e-20
-2.0041e-20
0
9.13815e-21
0
1.95278e-20
0
3.70484e-20
2.79771e-20
-1.90306e-20
0
0
5.44974e-20
-1.85488e-20
0
3.51212e-20
0
0
2.46924e-20
0
1.77417e-20
3.37539e-20
-2.55257e-20
1.59031e-20
0
1.7192e-20
0
4.79224e-20
0
-1.67678e-20
2.42427e-20
3.16153e-20
-3.14107e-20
5.49899e-20
0
0
1.45511e-20
0
0
0
8.58747e-21
0
0
2.92648e-20
0
-2.88946e-20
0
1.50183e-20
0
-1.48391e-20
0
-4.09759e-20
2.76451e-20
2.74723e-20
1.28974e-20
0
-1.2728e-20
1.26444e-20
0
-2.64646e-20
0
5.07728e-20
-6.41942e-20
0
0
0
-4.91931e-20
-3.70402e-20
0
0
-1.16173e-20
0
3.59126e-20
-2.42972e-20
0
0
4.62227e-20
3.48308e-20
0
-4.53787e-20
0
0
0
0
1.21343e-20
0
0
-6.55968e-20
0
0
0
0
1.01129e-20
0
0
6.25842e-20
0
0
2.10044e-20
0
0
0
-2.05399e-20
-3.93462e-20
-2.03137e-20
-9.34781e-21
-9.29248e-21
9.23764e-21
0
2.88947e-20
-2.87346e-20
-3.75989e-20
-1.79413e-20
3.71813e-20
0
0
-3.65689e-20
0
0
0
2.72101e-20
5.2624e-20
0
-2.15251e-20
0
-3.2138e-20
6.37566e-20
-1.15439e-20
-3.1365e-20
0
0
0
2.07436e-20
-9.53715e-21
-9.45593e-21
2.96316e-20
0
0
-2.8918e-20
9.05947e-21
1.94697e-20
1.93161e-20
0
0
0
6.3241e-20
-2.70971e-20
-1.84202e-20
1.82751e-20
0
0
0
0
0
3.33512e-20
0
0
-1.70202e-20
3.2267e-20
-1.67535e-20
0
0
-4.60734e-20
1.47274e-20
0
-3.04523e-20
3.02014e-20
0
-2.26556e-20
-6.98882e-21
0
0
1.51218e-20
0
2.8266e-20
0
0
2.75722e-20
-1.44251e-20
0
-1.26949e-20
0
-3.8927e-20
0
0
1.2149e-20
0
-3.7316e-20
0
0
0
2.45513e-20
1.14215e-20
0
0
-1.11224e-20
-2.35542e-20
0
3.39975e-20
0
0
0
0
0
0
-3.20382e-20
0
0
0
2.11478e-20
0
0
0
0
2.96819e-20
0
0
0
0
3.74287e-20
-1.93067e-20
-2.79687e-20
3.64744e-20
0
0
4.40537e-20
3.52391e-20
0
0
-2.61313e-20
2.59103e-20
-1.76292e-20
3.34634e-20
2.52585e-20
4.0738e-20
0
1.69173e-20
2.44151e-20
0
0
-1.4864e-20
0
0
-7.23264e-21
-3.01747e-20
0
-3.66974e-20
0
0
0
-1.35743e-20
0
0
0
0
2.74462e-20
1.28528e-20
0
-2.67465e-20
-1.2506e-20
0
-3.83449e-20
0
1.20576e-20
3.88548e-20
2.51841e-20
4.99374e-20
-2.47552e-20
-3.60627e-20
0
-2.41261e-20
3.51274e-20
3.48212e-20
0
-2.3313e-20
0
0
0
0
0
-2.2147e-20
-3.21854e-20
0
0
-3.13535e-20
0
0
0
2.06878e-20
0
-2.03394e-20
0
-9.24599e-21
-1.98286e-20
0
-2.84912e-20
0
5.60025e-20
2.77597e-20
1.88487e-20
0
0
0
0
-3.51835e-20
-2.37616e-20
0
0
0
-1.07442e-20
3.3456e-20
0
0
0
0
-1.01912e-20
0
0
-5.26337e-20
-3.10168e-20
0
-9.66434e-21
-3.02425e-20
0
0
2.94868e-20
0
0
-9.0813e-21
0
-2.82676e-20
-3.68712e-20
1.75255e-20
-2.75597e-20
1.01128e-20
-1.70612e-20
-9.95991e-21
-3.50213e-20
-2.64177e-20
0
0
0
1.75266e-20
1.73829e-20
0
2.48956e-20
0
-3.21337e-20
-3.18578e-20
0
0
3.10436e-20
2.34589e-20
-2.32603e-20
3.02494e-20
0
0
0
0
-2.89689e-20
1.36069e-20
0
2.82258e-20
0
0
0
-4.01425e-20
0
3.94386e-20
0
0
1.22998e-20
-1.36922e-20
-2.5655e-20
5.08657e-20
-1.18536e-20
0
0
0
0
0
1.12119e-20
-2.22162e-20
6.90417e-20
0
-2.31091e-20
0
-2.27094e-20
0
0
0
-7.44977e-20
2.17395e-20
1.00226e-20
1.14341e-20
-3.10131e-20
9.7438e-21
-6.09253e-20
6.0382e-20
-9.47212e-21
0
0
0
-2.88672e-20
0
6.56564e-20
0
0
0
0
0
2.68648e-20
0
-8.29347e-21
-5.22983e-20
1.77782e-20
-2.56824e-20
0
-5.04475e-20
-4.99948e-20
0
1.68689e-20
0
-3.16473e-20
-3.13586e-20
0
0
3.05075e-20
0
0
0
0
0
0
0
0
-1.32907e-20
-1.46673e-20
-1.30347e-20
0
-4.13599e-20
0
-1.25362e-20
-2.6334e-20
2.60926e-20
1.36792e-20
1.35607e-20
0
-2.51484e-20
0
0
0
-2.42381e-20
0
2.22901e-20
0
-3.42881e-20
0
0
3.3332e-20
3.30192e-20
-1.19065e-20
0
-2.19002e-20
0
2.15001e-20
-9.89888e-21
-3.09086e-20
0
-3.03304e-20
0
0
0
-2.92061e-20
-2.89315e-20
-1.96081e-20
2.83901e-20
0
0
-1.88997e-20
0
-3.56058e-20
2.68261e-20
0
3.82167e-20
0
0
0
0
3.65928e-20
1.15902e-20
0
0
1.27838e-20
0
-3.473e-20
0
0
-1.2281e-20
0
4.53318e-20
2.24729e-20
0
0
0
0
0
0
0
-9.73979e-21
-3.0456e-20
3.97508e-20
0
0
-2.01038e-20
9.21331e-21
-9.12809e-21
0
0
0
-1.90938e-20
-8.71249e-21
0
-5.43169e-20
3.53907e-20
-3.50745e-20
0
3.44501e-20